default_name
 51090
  32.0074753  40.8773834  57.4294562  31.2714209  40.8567851  58.0087700
  31.9555560  41.4380914  56.6448697  32.4619414  39.6672898  56.7323313
  33.0130536  39.9108584  55.9256178  31.6738614  39.1202533  56.4235110
  33.2823416  38.9180931  57.7481452  33.8009538  38.1944877  57.3167862
  32.7087639  38.5651118  58.4723653  34.1633938  39.9933632  58.2371721
  34.9609121  40.1108969  57.6497512  34.4560765  39.8322133  59.1768787
  33.2573222  41.2247305  58.1619798  33.0464652  41.5157602  59.0854921
  33.9730532  42.3109836  57.3804363  33.6437992  42.5607006  56.2188842
  34.9182256  42.9756558  58.0347024  35.0495836  42.6855878  59.0244436
  35.6991231  44.0271591  57.3966015  35.3108812  44.2002808  56.5006913
  35.7390666  45.2867134  58.2618272  34.8007325  45.5699684  58.4603942
  36.2101583  45.0738696  59.1189807  36.4572872  46.4530844  57.6042834
  37.4385110  46.2568083  57.5862382  36.1208112  46.5499582  56.6665098
  36.2404186  47.7626031  58.3339063  35.5192975  48.6411392  57.8536295
  36.8747922  47.9079422  59.4938239  36.7884526  48.7644838  60.0329110
  37.4524868  47.1405047  59.8364236  37.0973549  43.4753916  57.2055241
  37.7567293  43.0834054  58.1681841  37.5248486  43.3978211  55.9537914
  36.8425035  43.7404849  55.2414126  38.8325971  42.8782320  55.6208362
  39.2070783  42.4768153  56.4647363  38.7034590  41.8399294  54.5119796
  38.2577596  42.2542474  53.7474238  40.0567580  41.2552273  54.1405349
  39.9359506  40.5476710  53.4460145  40.6454422  41.9773809  53.7797438
  40.4821053  40.8546646  54.9505394  37.7748733  40.7560959  55.0694827
  38.1728543  40.4113853  55.9221677  36.8949270  41.1856045  55.2880184
  37.5338293  39.6002135  54.1348188  38.4032145  39.1549166  53.9207768
  36.9219182  38.9401392  54.5701195  37.1158282  39.9343204  53.2897337
  39.7874300  44.0010806  55.2191467  39.5191292  44.7429482  54.2810081
  40.8580668  44.1677289  55.9947137  40.9085035  43.5152921  56.8078068
  41.8805969  45.1856776  55.7260473  41.4304166  46.0090543  55.3854219
  42.6782625  45.5463752  56.9938232  43.5532439  45.9945670  56.7171975
  41.8745482  46.4929641  57.8881736  42.0410852  47.4398365  57.6100761
  40.8984965  46.2881204  57.8017669  42.1556602  46.3731368  58.8415023
  43.0048375  44.3516077  57.7298832  43.9677159  44.1074346  57.5829997
  42.8346862  44.6728757  54.6338377  42.9078913  43.4651803  54.3865288
  43.5514064  45.5822327  53.9770371  43.4125103  46.5585172  54.2843518
  44.4596362  45.1893766  52.9036128  44.2139474  44.2305815  52.6164371
  44.1745545  45.9883738  51.6236077  44.0062381  46.9387438  51.8884503
  44.9888068  45.9417013  51.0466884  42.9810071  45.5408884  50.7612508
  43.2736522  45.5092315  49.8016495  42.4627055  44.1729895  51.1785866
  42.1648504  44.2046857  52.1332026  41.6899224  43.9162390  50.5973126
  43.1916775  43.4950189  51.0801650  41.8749392  46.5767422  50.8209139
  42.2150498  47.4541495  50.4768103  41.1022426  46.2781456  50.2572722
  41.5686442  46.6895191  51.7677395  45.9422119  45.2200727  53.2263372
  46.7527810  45.4847929  52.3544417  46.2977736  44.9958288  54.4853624
  45.5210676  44.8606562  55.1491818  47.7081168  44.9521976  54.8625287
  48.1708508  45.6854364  54.3955554  47.8626427  44.9136326  56.3764440
  47.2421646  44.2170686  56.7441865  48.8075054  44.6591288  56.5953237
  47.5698234  46.1840742  57.0720012  46.5429495  46.4298491  57.9288622
  45.8356591  45.7696801  58.1846224  46.6134296  47.7172311  58.3957198
  45.9681376  48.1348462  59.0425041  47.6920288  48.3365992  57.8462692
  48.1760866  49.6474184  58.0106716  47.6977723  50.2869535  58.6158875
  49.3096444  49.9995006  57.3162252  49.6846526  50.9213837  57.4097905
  49.9654552  49.0877666  56.4680016  50.7814297  49.3739173  55.9769584
  49.4928295  47.7927575  56.3030094  49.9656358  47.1543809  55.7051637
  48.3316148  47.4011520  57.0007734  48.2282317  43.6381948  54.2937553
  49.3215201  43.5652336  53.7479612  47.4231372  42.5999404  54.4822564
  46.5428946  42.8322291  55.0052411  47.7315896  41.2672832  54.0089712
  48.6735314  41.2558988  53.6892291  47.4802900  40.2535692  55.1301372
  46.5637006  40.4060807  55.5059366  47.5253531  39.3271324  54.7471684
  48.4806444  40.3239629  56.2969285  48.7251850  39.3872295  56.5611170
  49.3066528  40.7975692  55.9778089  47.9564134  41.0521436  57.5389541
  46.8790203  40.7394985  58.0546626  48.7450209  41.9861292  58.0524695
  48.4566782  42.5184549  58.8658991  49.6490382  42.1613232  57.6161718
  46.8314132  40.9829396  52.8128236  45.9705827  41.7961032  52.4788401
  47.0505463  39.8550072  52.1472577  47.8325844  39.2764679  52.5128828
  46.2426814  39.4694686  50.9874304  46.1608759  40.2573072  50.3762813
  46.8848441  38.2889929  50.2564570  47.2278335  37.6476327  50.9468339
  46.1728707  37.8355881  49.7159907  48.0269963  38.6397886  49.3295639
  47.7235984  39.3127631  48.6670625  48.7909385  38.9882219  49.8590198
  48.4832632  37.4092431  48.5870686  48.9329920  36.7957855  49.2391290
  47.6751395  36.9529067  48.2084433  49.4117827  37.7120623  47.5011398
  49.6920734  38.6694647  47.3738342  49.9104304  36.8010565  46.6695366
  49.5758373  35.5224356  46.7912820  48.9316884  35.2264129  47.4930205
  49.9755795  34.8420134  46.1679644  50.7468248  37.1695380  45.7072825
  50.9836078  38.1388389  45.5998643  51.1380986  36.4883286  45.0920065
  44.8539609  39.0604370  51.4522384  44.7218906  38.2932405  52.4030065
  43.8005122  39.5344787  50.7696755  43.7765512  40.5431455  49.6966358
  44.4502661  40.3265965  48.9952566  43.9482884  41.4538943  50.0651301
  42.3698741  40.4202697  49.1658890  42.2920058  39.6486795  48.5451378
  42.0865060  41.2599196  48.7172548  41.5797380  40.1876285  50.4070276
  40.6835319  39.8033063  50.1972468  41.4743607  41.0283396  50.9309833
  42.4350229  39.1755143  51.1736922  42.2949135  39.3719935  52.1649390
  42.0493540  37.7256811  50.8600359  41.2398416  37.4787342  49.9754224
  42.6245470  36.7748509  51.5925419  43.2911534  37.1196203  52.3107473
  42.3284892  35.3535698  51.3888568  42.0183775  35.2259198  50.4454278
  43.5742906  34.4902247  51.6290258  43.9052660  34.6812142  52.5367082
  43.3160829  33.5472701  51.5187381  44.7140630  34.7775740  50.6507625
  44.7787177  35.7633893  50.5099363  46.0226766  34.2572344  51.2131238
  45.9571099  33.2684829  51.3592929  46.7660154  34.4471522  50.5697642
  46.2172970  34.7081753  52.0852312  44.4258203  34.1765746  49.2839802
  43.5823847  34.5700621  48.9156680  45.1845422  34.3774464  48.6627423
  44.3200238  33.1849215  49.3694686  41.2137784  34.9224471  52.3305670
  41.1215873  35.4154416  53.4570119  40.3788322  33.9986294  51.8611463
  40.5978904  33.6740186  50.8898840  39.2483053  33.4771888  52.6337307
  39.4941860  33.5040486  53.5961517  37.9439100  34.2115864  52.2977217
  37.2015330  33.7501132  52.7794684  37.9807470  35.6419094  52.8040764
  37.6619059  35.6708883  53.7521194  38.9178309  35.9902036  52.7590317
  37.3874351  36.2145016  52.2375606  37.6953273  34.1767444  50.7908578
  37.2424194  35.0227605  50.5142404  38.5706313  34.0910097  50.3163145
  37.1139039  33.3941250  50.5735130  39.0496403  32.0304629  52.2301750
  39.5603365  31.6054801  51.1964492  38.2984029  31.2789916  53.0269958
  37.9309952  31.7648453  53.8665229  38.0297480  29.8863008  52.7186747
  38.7614668  29.5368381  52.1321456  37.9468601  29.0473092  53.9969891
  37.1184550  29.3247893  54.5235246  37.9263750  27.5612758  53.6604548
  38.4393196  27.0501759  54.3531681  36.9803267  27.2315346  53.6407969
  38.3453459  27.4110972  52.7624683  39.0981310  29.3069928  54.8093744
  39.4681171  30.2202532  54.6100465  36.7131435  29.7827709  51.9515307
  35.7425982  30.4786079  52.2564205  36.7007833  28.9493239  50.9220346
  37.6050078  28.4637766  50.7434769  35.5096122  28.7433923  50.1192770
  34.7557766  29.1504378  50.6202547  35.7037585  29.2430034  48.6786838
  34.8479217  29.1104716  48.1879957  36.0658741  30.7262773  48.6726089
  36.1475050  31.0433003  47.7304821  35.3513507  31.2433753  49.1385863
  36.9350013  30.8564219  49.1449757  36.7875910  28.4285444  47.9680246
  37.6763987  28.6984451  48.3378834  36.6374929  27.4617801  48.1790396
  36.7995869  28.6055759  46.4725350  36.9593700  29.5680759  46.2501614
  37.5286825  28.0478661  46.0752551  35.9189692  28.3194653  46.0947916
  35.2497328  27.2450609  50.0841812  36.1816851  26.4571230  50.2433410
  33.9892268  26.8502003  49.9280801  33.2956339  27.6221590  49.8695158
  33.6263536  25.4371454  49.8468410  34.4495434  24.8880800  49.9029102
  32.6192437  25.0516328  50.9364219  32.9340077  25.4335291  51.8015744
  31.7341767  25.4409657  50.6942270  32.4457168  23.5438545  51.1146967
  32.8648257  23.0726734  50.3311758  32.9224108  23.2567279  51.9525715
  30.9795129  23.1097306  51.2157800  30.9219827  22.3069302  51.8007242
  30.4481312  23.8571301  51.6016990  30.3798836  22.7508231  49.8433551
  31.0806549  22.2313827  49.3159091  29.6003663  22.1098726  49.9942205
  29.9013748  23.9001196  49.0041520  30.3312960  24.7402116  49.3277277
  30.1523382  23.7341957  48.0525504  28.9097003  23.9721402  49.0866982
  32.9819292  25.2301492  48.4907363  31.9454759  25.8235146  48.1961399
  33.5934454  24.4082907  47.6570179  34.4610988  23.9772856  48.0129634
  33.0446700  24.1580642  46.3382149  32.0859555  24.4161882  46.3785572
  33.8465260  24.9000568  45.2545337  33.7261466  25.8815536  45.4009231
  35.3387884  24.5907347  45.3823175  35.8466854  25.1363960  44.7198347
  35.6439480  24.8142895  46.3047999  35.4914548  23.6214265  45.2050901
  33.3462318  24.5672071  43.8475039  33.5620757  23.6146697  43.6489141
  32.3554386  24.6842903  43.8291908  33.9541493  25.4433297  42.7561421
  34.9445871  25.3251111  42.7591717  33.5821099  25.1682289  41.8734602
  33.7246269  26.3959492  42.9393405  33.0873982  22.6650464  46.1156907
  34.1485556  22.0540859  46.1733122  31.9162014  22.0667213  45.9633380
  31.0921756  22.6857850  46.0125993  31.8448164  20.6336074  45.7434002
  30.8694010  20.3642237  45.6008580  32.3301748  20.4025915  44.8740850
  32.4283186  19.8013082  46.8709383  33.1497151  18.8330886  46.6293067
  32.1149625  20.1718956  48.1047916  31.4966868  20.9928427  48.1777167
  32.6342191  19.4367745  49.2440736  32.0085400  19.5553522  50.0356923
  32.6492493  18.4443397  49.0259631  34.0307489  19.8796576  49.6431262
  34.3525789  19.9633651  50.8311154  34.8598287  20.1869920  48.6531316
  34.4558313  20.0897936  47.6997431  36.2238127  20.6230654  48.9068177
  36.6271502  20.0036990  49.5948774  37.0426001  20.5876717  47.6095504
  36.5674509  21.1411651  46.9173890  37.9415802  21.0036631  47.7877975
  37.2711048  19.2003378  47.0304312  38.0005131  18.7530528  47.5443648
  36.4274583  18.6738372  47.1140235  37.6711247  19.2432463  45.5628420
  38.8309778  19.4961222  45.2196443  36.7044411  18.9969427  44.6856298
  36.8927545  19.0216307  43.6854680  35.7706366  18.7823663  45.0283820
  36.2668077  22.0358495  49.4743971  35.5050066  22.9116178  49.0554674
  37.1303442  22.2318623  50.4630208  37.6438193  21.3801163  50.7681648
  37.3258480  23.5433697  51.0565631  36.5920105  24.1330050  50.7866802
  37.5314964  23.4339193  52.5666391  38.2357510  22.7517683  52.7299073
  37.8211950  24.3224142  52.9007402  36.2993939  23.0214129  53.3664034
  35.9264363  22.1848169  52.9809170  36.7053764  22.7810151  54.8068943
  37.0919404  23.6203983  55.1934276  35.9037698  22.5090457  55.3428090
  37.3916490  22.0530173  54.8473793  35.2395489  24.1033420  53.2986909
  34.9723007  24.2549459  52.3451656  34.4360528  23.8223306  53.8268808
  35.6024615  24.9560590  53.6791565  38.6128158  24.0403502  50.4039243
  39.6079065  23.3137142  50.3816437  38.5812464  25.2377204  49.8233409
  37.6633334  25.7212904  49.8717651  39.7594601  25.8105174  49.1730287
  40.5566601  25.2373185  49.3856486  39.5851353  25.8523911  47.6573650
  38.6891751  26.2502948  47.4575124  40.3012372  26.4402537  47.2770891
  39.6682105  24.4985328  46.9793589  40.5671539  24.0983658  47.1560170
  38.9578245  23.9024787  47.3491835  39.4727532  24.6269301  45.4812479
  38.5645420  24.9912258  45.3027591  40.1684800  25.2352467  45.1136011
  39.5967835  23.2772698  44.7889571  38.9758572  22.6224759  45.2385352
  39.3065202  23.3751780  43.8285712  40.9861786  22.7256985  44.8201406
  41.6115029  23.3888096  44.4125683  41.2486145  22.5521143  45.7676901
  41.0123946  21.8733230  44.3005931  40.0126438  27.2163582  49.6865757
  39.1252348  27.8432540  50.2550665  41.2420030  27.6908241  49.5264320
  41.9086179  27.0366020  49.0729335  41.6090167  29.0360758  49.9626635
  40.9751607  29.3557797  50.6412540  43.0460935  29.0414235  50.4924055
  43.1147156  28.3264424  51.1716647  43.6469268  28.8684864  49.7271258
  43.4884088  30.3383988  51.1416160  43.5444906  31.0312098  50.4490001
  42.8505946  30.5674387  51.8513088  44.8650908  30.2277820  51.7869163
  45.8696190  30.0825100  51.0512860  44.9367869  30.2901471  53.0359593
  41.5019765  29.8884110  48.7092345  42.0171168  29.4971803  47.6558861
  40.8188005  31.0246039  48.7959076  40.4302505  31.2356169  49.7287760
  40.6560805  31.8776848  47.6327682  41.3402429  31.6100029  46.9365152
  39.2966893  31.6660747  46.9997508  39.0846600  32.4310567  46.3901213
  39.2986218  30.8150242  46.4722944  38.5969282  31.6101077  47.7125595
  40.8605123  33.3278320  47.9837877  40.6159696  33.7452956  49.1087864
  41.3076405  34.0855102  46.9945375  41.4387334  33.5668851  46.0859932
  41.5982459  35.5082301  47.1277088  41.7429004  35.7189040  48.1034944
  42.8561422  35.8010945  46.3064626  43.5791760  35.1590681  46.6241308
  42.6488144  35.5585441  45.3417650  43.4680010  37.1932335  46.2974262
  42.7479934  37.8675890  46.1284949  44.1341195  37.4936995  47.6328001
  44.8567977  36.8233237  47.8041872  44.5310059  38.4121384  47.6087963
  43.4541034  37.4435866  48.3647364  44.4894299  37.2430711  45.1665623
  44.0326419  37.0584878  44.2961378  44.9093390  38.1500746  45.1364607
  45.1965858  36.5528278  45.3251299  40.4404161  36.3766649  46.6199280
  39.9771882  36.1878450  45.4958373  39.9688062  37.3022778  47.4566876
  40.4379073  37.3152273  48.3919210  38.8839326  38.2269346  47.1013748
  38.2022499  37.7342499  46.5851070  38.3070812  38.8741796  48.3668633
  39.0234007  39.3925100  48.7973897  37.5454444  39.4353239  48.1033421
  37.7970435  37.8507985  49.3900747  38.4777705  37.1324621  49.4921950
  37.5745404  38.5378849  50.7248442  36.8972437  39.2671310  50.6188239
  37.2411811  37.8724060  51.3941336  38.4359333  38.9308338  51.0489037
  36.5091286  37.1683433  48.9097205  36.6897126  36.6953597  48.0493061
  36.2091206  36.5115057  49.5991845  35.8026752  37.8607725  48.7725007
  39.5069008  39.2915528  46.1951558  40.2268928  40.1712295  46.6628077
  39.1872371  39.2319099  44.9092115  38.4862775  38.4970660  44.6711401
  39.7734811  40.1243894  43.9260795  40.4298285  40.7333478  44.4248107
  40.5400739  39.2543787  42.9186814  41.1276482  38.6384141  43.4354890
  39.8719171  38.7334127  42.3964795  41.3935792  40.0576937  41.9604311
  41.4758182  41.2975808  42.0704162  41.9989161  39.4235282  41.0788885
  38.7916001  41.0419494  43.2015091  38.1101421  40.6283648  42.2615880
  38.8205011  42.3190189  43.5608966  39.5125723  42.5485595  44.3017269
  37.9395425  43.3130040  42.9517033  37.0082364  42.9185666  42.8840340
  37.8792830  44.5612156  43.8188581  37.2957227  45.2606558  43.3590920
  37.3454789  44.2295843  45.1929060  38.0972474  44.2064155  45.8593243
  36.6783959  44.9222879  45.4803083  36.8959648  43.3316836  45.1814061
  39.1931419  45.0949962  43.9499850  39.3124249  45.8936289  43.3482115
  38.3819567  43.7227819  41.5381840  37.6673966  44.4360768  40.8299022
  39.5879610  43.3184406  41.1576150  40.1112599  42.7702397  41.8584708
  40.0948684  43.6480121  39.8377364  39.7272786  44.5505660  39.5530375
  41.1051758  43.7408696  39.8802383  39.7320143  42.6101710  38.7974193
  39.8832517  42.8636705  37.5983086  39.2343895  41.4563243  39.2530061
  39.1476017  41.4093287  40.2921155  38.8479489  40.3623013  38.3688820
  39.3874131  40.4405060  37.5052378  39.2306479  39.0434051  38.9763063
  39.9514661  38.6094827  38.4305906  39.5685538  39.1795152  39.9104127
  38.4348458  38.4336050  39.0056297  37.3741266  40.3441806  38.0154454
  36.5165277  40.2612559  38.8865749  37.0778843  40.3501518  36.7280077
  37.8819364  40.3790527  36.0853190  35.6942325  40.3168840  36.3022812
  35.1848592  40.9556608  36.8785702  35.5719749  40.6421546  34.8082564
  36.1665858  40.0246975  34.3091426  34.6267240  40.5111539  34.5414070
  35.9766660  42.0767717  34.4824975  36.0486767  42.9211838  35.3971869
  36.2183691  42.3628244  33.2865860  35.1313488  38.9293485  36.5718847
  34.0413955  38.7960899  37.1037400  35.9144517  37.9043123  36.2440544
  36.8456729  38.1746218  35.8667313  35.4849239  36.5236185  36.4080436
  34.4809706  36.5437196  36.5868581  35.8036484  35.7275666  35.1415527
  36.7906658  35.6079664  35.0971968  35.3538807  34.8434572  35.2150748
  35.3356634  36.4127335  33.8825009  36.1249714  37.1997295  33.3177698
  34.1914039  36.1464945  33.4558887  36.1301374  35.8077159  37.5775166
  37.1427668  36.2581716  38.1154650  35.5549364  34.6642136  37.9325255
  34.7096186  34.4157829  37.3653403  36.0571997  33.8348077  39.0125993
  36.6915730  34.3585390  39.5576929  34.8984773  33.2766769  39.8777463
  34.2087359  32.8462030  39.2604692  35.4068052  32.2583884  40.8765763
  35.4940467  31.3597422  40.4369094  36.3055189  32.5379374  41.2257281
  34.7676244  32.1829543  41.6466741  34.2539230  34.3450314  40.5934848
  33.7274053  34.9189001  39.9587788  36.8343021  32.6976339  38.3363180
  36.3053369  32.0219513  37.4447768  38.0986921  32.5253661  38.7129557
  38.4303805  33.1847839  39.4426597  38.9341376  31.4821116  38.1296918
  38.3569648  30.9090828  37.5464949  40.1177792  32.0615137  37.3377607
  40.8247586  32.3110159  37.9921602  40.7023392  31.0083288  36.4252798
  41.4604861  30.5430766  36.8857694  39.9987096  30.3355514  36.1884828
  41.0425405  31.4370821  35.5856991  39.6892103  33.2774082  36.5423720
  39.8760908  34.1053899  37.0729104  40.1987334  33.3091215  35.6815692
  38.7091057  33.2206554  36.3474357  39.4968468  30.6129926  39.2405580
  40.0237493  31.1324786  40.2184726  39.3966191  29.2969549  39.0837810
  38.9267526  28.9964942  38.2056501  39.9115954  28.3535342  40.0786608
  40.3743053  28.8727546  40.8055272  38.7661104  27.5610304  40.7146985
  38.2445090  27.1356998  39.9779077  39.1686268  26.8566755  41.2958317
  37.7793287  28.3532573  41.5728869  37.5155529  29.1722217  41.0851599
  36.5732263  27.4810124  41.8058801  36.8457388  26.6397707  42.2794868
  35.9011510  27.9692980  42.3680812  36.1518292  27.2387787  40.9289051
  38.4087356  28.7841708  42.8890851  39.2045603  29.3625479  42.7062410
  37.7399009  29.2991824  43.4268481  38.6969915  27.9750493  43.4030579
  40.9355960  27.3858497  39.4570023  40.9540529  27.1702662  38.2389037
  41.7823378  26.8086662  40.3010181  41.6557699  27.0699795  41.2970788
  42.8072853  25.8784253  39.8367288  43.3322718  26.2990181  39.0912109
  43.7883042  25.5847611  40.9699045  43.2703253  25.3184651  41.7570565
  44.4053267  24.8897157  40.6649962  44.6282354  26.8028523  41.3638252
  45.3262239  26.9281160  40.6786901  44.0288135  27.5833615  41.4235475
  45.3300837  26.6617742  42.7121315  45.4076878  25.5282699  43.2503245
  45.8029135  27.6950378  43.2351002  42.1612112  24.5922304  39.3435797
  41.0996017  24.2180407  39.8294699  42.8025076  23.9525499  38.3618298
  43.6869629  24.4242861  38.0522209  42.3252417  22.6985839  37.7591130
  41.6897811  22.9259430  36.9908086  43.4801999  21.9454923  37.1049886
  44.2662719  22.0330805  37.6955113  43.2045560  21.0039067  37.0037068
  43.8677997  22.4636351  35.7399815  43.8081727  23.4448767  35.7498642
  44.7753250  22.1477740  35.5300277  42.9479797  21.9624967  34.6436894
  42.6859448  20.7432022  34.6034204  42.5040669  22.7801987  33.8078373
  41.6397540  21.7615508  38.7236531  42.2177734  21.3873793  39.7381782
  40.4096798  21.3845992  38.3946757  40.0529345  21.7913112  37.5058045
  39.6355541  20.4727948  39.2261864  40.2163169  19.6922966  39.4595662
  39.1512119  21.1645947  40.4984496  38.8256575  20.4598250  41.1508475
  39.9362983  21.6358306  40.9333623  38.0388366  22.1781410  40.2973453
  38.3022216  22.8070547  39.5516585  37.2014220  21.6911259  40.0104690
  37.7783996  23.0636826  41.8269753  36.7625917  21.9036256  42.7486326
  36.6581240  21.0603208  42.2213078  37.2018041  21.6974652  43.6231080
  35.8622175  22.3069781  42.9144942  38.4516781  19.9637569  38.4306634
  38.1286829  20.4983115  37.3655134  37.8101145  18.9269009  38.9525511
  38.1889025  18.5869798  39.8566238  36.6662941  18.3343621  38.2838041
  36.7355833  18.5491365  37.2947955  36.6830751  16.8162904  38.4432394
  37.5287371  16.5485057  38.8892486  35.8988884  16.5411222  38.9886050
  36.6081860  16.1827140  37.1765770  36.0851444  16.7565849  36.5482676
  35.3495717  18.8877002  38.7896826  35.0760702  18.8652669  39.9912194
  34.5739235  19.4379450  37.8623301  34.9966126  19.4511698  36.9031758
  33.2561136  19.9743150  38.1533787  33.0180213  19.7548114  39.0888883
  33.2018191  21.4842170  37.9091201  33.7564774  21.6849418  37.1264448
  32.2646193  21.7385063  37.7889432  33.7548907  22.2741741  39.0876826
  34.7011467  22.0150293  39.2396779  33.6806348  23.7546366  38.7609507
  32.7284352  24.0157589  38.5959260  34.0418338  24.2868915  39.5278125
  34.2227493  23.9462228  37.9411655  32.9714523  21.9587489  40.3656988
  33.0461726  20.9821967  40.5655402  33.3512319  22.4866228  41.1243407
  32.0118452  22.2032894  40.2331576  32.2911828  19.2614383  37.2261219
  32.6175370  18.9723402  36.0667840  31.1082618  18.8974682  37.7369737
  30.6440203  19.0829404  39.1274538  30.8298667  20.0099297  39.4384053
  31.0806072  18.4242655  39.7335176  29.1593174  18.8271467  39.0113802
  28.6848878  19.6269487  38.6742477  28.7812420  18.5222399  39.8730656
  29.1135790  17.7172995  37.9929220  28.1977500  17.6258060  37.6158024
  29.4099508  16.8590103  38.3957252  30.0973657  18.2005287  36.9377138
  30.5049761  17.4043465  36.4649277  29.4198835  19.1305947  35.9412574
  29.3962805  20.3489795  36.1344058  28.8812144  18.5524671  34.8740807
  29.0031080  17.5267975  34.8208389  28.1793557  19.3388985  33.8766921
  27.3046620  18.8719327  33.6369569  27.9222321  20.2389969  34.2804845
  28.9816049  19.5701648  32.6164647  30.0463384  18.9829473  32.4354473
  28.4428583  20.4019650  31.7309962  27.5204093  20.7967638  32.0145376
  29.0977906  20.7256854  30.4734101  29.7274728  19.9860251  30.2335498
  28.0669442  20.8842611  29.3531301  27.2107468  21.1990669  29.7565583
  28.4069530  21.5638556  28.7078934  27.7726409  19.6026407  28.5714218
  27.6855579  19.8201196  27.5978215  28.5276815  18.9563212  28.6975433
  26.4790628  18.9037898  29.0135430  25.7551750  19.5970727  29.0461947
  26.2467551  18.2240095  28.3130083  26.5711180  18.2401991  30.3174196
  26.4176952  18.8034094  31.1405324  26.8429484  16.9471518  30.4945126
  27.0565812  16.1558733  29.4502175  27.0374022  16.5166758  28.5211186
  27.2413481  15.1780267  29.5968228  26.8982496  16.4404831  31.7216975
  26.7533692  17.0432476  32.5109209  27.0829380  15.4715445  31.8580246
  29.8936283  22.0104230  30.6411383  29.5309820  22.8609698  31.4488807
  30.9647323  22.1497224  29.8634513  31.1415755  21.3527437  29.2198207
  31.8099664  23.3356571  29.9254205  31.3086101  24.0427461  30.4401127
  33.1306606  23.0286819  30.6529566  33.7270755  23.8193210  30.5738745
  32.9301508  22.8377441  31.6075856  33.8663001  21.8513363  30.1019312
  33.7441062  20.5537181  30.4929937  33.1595438  20.2311229  31.2389629
  34.5373166  19.7484377  29.7190534  34.6154097  18.7508371  29.8117007
  35.1991463  20.5103391  28.8099496  36.1106183  20.1461834  27.8176102
  36.3670031  19.1816912  27.6961083  36.6311121  21.1415812  27.0319796
  37.2872516  20.9191475  26.3120135  36.2617124  22.4885365  27.2124270
  36.6561094  23.1877830  26.6256431  35.3583224  22.8564679  28.1947451
  35.1009830  23.8089856  28.3175515  34.8073165  21.8509248  29.0190032
  32.0883501  23.8893741  28.5364277  31.8838788  23.2073471  27.5335834
  32.5145170  25.1461168  28.4824877  32.5966760  25.6164084  29.4092939
  32.8396990  25.8092612  27.2207646  32.8230751  25.1326266  26.4854073
  31.8480141  26.9430295  26.9305844  31.6365937  27.4006082  27.8010389
  32.3032041  27.6061030  26.3253145  30.5319947  26.5325000  26.2787527
  30.1063288  27.3457991  25.8650897  30.7228712  25.8675225  25.5492864
  29.5446881  25.9106280  27.2607230  28.7215301  25.6475055  26.7665454
  29.9658334  25.1124614  27.6804334  29.1509219  26.8874787  28.3687668
  29.6128075  27.7605405  28.2034618  28.1597474  27.0284112  28.3329875
  29.5307025  26.3704608  29.7008659  28.7132033  26.0512490  30.1832122
  30.1716233  25.6088577  29.5959175  29.9660981  27.0983670  30.2328652
  34.2382783  26.3973538  27.3183407  34.5909556  26.9940720  28.3357237
  35.0793832  26.1960150  26.2864903  34.8742998  25.3661933  25.0909562
  34.5096064  25.9103647  24.3434630  34.2676992  24.6038520  25.2920321
  36.2719559  24.9025963  24.8073012  36.3582575  24.5844724  23.8697228
  36.5460267  24.1888454  25.4427616  37.0545470  26.1380070  25.0253920
  36.9563535  26.7736345  24.2568605  38.0256012  25.9363459  25.1643614
  36.4435514  26.7338280  26.2936627  36.9342874  26.4503294  27.1160888
  36.3863490  28.2520518  26.1873038  35.7097150  28.7981699  25.3137024
  37.1167858  28.9232926  27.0636295  37.6479043  28.3306771  27.7342993
  37.1582515  30.3739273  27.0698552  36.7988449  30.7159923  26.2157502
  36.3828631  30.8968724  28.2778752  35.5204428  30.3774919  28.3410263
  36.9282941  30.7005273  29.1040052  36.0490442  32.3715041  28.2672920
  36.8840373  32.8983819  28.2091942  35.4453283  32.5694444  27.5105114
  35.3382610  32.7152189  29.5684551  34.4338105  32.2819245  29.5646834
  35.8730755  32.3504527  30.3333427  35.1553868  34.2094148  29.7781851
  34.7439576  34.3625682  30.6867675  36.0618317  34.6525412  29.7671124
  34.2935752  34.8420863  28.7425473  34.2990204  34.2782833  27.9176191
  33.3590135  34.9186170  29.0899930  34.6469061  35.7524833  28.5285087
  38.6286087  30.7348095  27.1680517  39.4396507  29.9357007  27.6360187
  38.9688776  31.9251466  26.7022891  38.1784479  32.4886968  26.3232509
  40.3454252  32.3968837  26.7244861  40.8899253  31.7545115  27.2295352
  40.7908379  32.6733060  25.2803032  40.3957769  31.9540707  24.6757303
  40.3855397  33.5593262  24.9795198  42.2956733  32.7313085  25.0251540
  42.4501209  33.2587810  24.1485996  42.7208999  33.3262013  25.7568882
  43.1074086  31.1250924  24.9564746  42.5576100  30.5377904  23.4174399
  43.1791747  30.8278032  22.6746668  42.5143684  29.5282343  23.4081266
  41.6350555  30.8889895  23.2032896  40.2851940  33.6964299  27.5186014
  39.5794727  34.6174533  27.1176446  40.9445937  33.7473051  28.6744861
  41.4359514  32.8846062  28.9456912  40.9494222  34.9779737  29.4903301
  40.3933069  35.6465067  28.9815791  40.4104826  34.7487053  30.8926175
  40.6427584  35.5321942  31.4511855  38.9015321  34.6641558  30.8650171
  38.5508727  34.5594778  31.7963143  38.5229796  35.4987968  30.4632641
  38.6162764  33.8776342  30.3172627  41.1046694  33.5256063  31.4873842
  40.6360250  32.7060608  31.1538913  42.0472711  33.5090294  31.1480563
  41.1250307  33.5091022  32.9860296  40.1870316  33.5147159  33.3377115
  41.5928567  32.6842771  33.3094059  41.6093184  34.3164523  33.3263462
  42.3442455  35.5734770  29.6255888  43.3178984  34.8348141  29.7792677
  42.4421268  36.8999232  29.6055746  41.5513089  37.4078239  29.5207664
  43.7435754  37.5385864  29.6999507  44.4741974  36.8164286  29.5850136
  43.8674478  38.1571070  28.8809411  44.0204187  38.3227693  30.9545239
  43.1230267  38.5618907  31.7538421  45.2797558  38.7187272  31.1190767
  45.9305061  38.4270722  30.3668870  45.6815570  39.4999717  32.2771362
  45.1221034  40.3367509  32.3276267  45.5223889  38.9642164  33.1148305
  47.1426485  39.8732579  32.1857297  47.6879170  39.9521900  31.0861516
  47.7684222  40.1366096  33.3294898  47.1683384  40.0802513  34.1768245
  49.1910127  40.4777934  33.3759532  49.3386338  41.1439223  32.6640857
  49.6417570  40.7846671  34.8064790  49.3775455  40.0202007  35.3850708
  51.1504835  40.9066132  34.8759297  51.4332990  41.0497590  35.8243382
  51.5729166  40.0693346  34.5281411  51.4520956  41.6816938  34.3217211
  48.9360408  42.0352336  35.3248042  47.9486838  41.9024466  35.2230999
  49.1420639  42.1248835  36.3008915  49.3416995  43.2943307  34.6227533
  49.1308414  43.2207625  33.6466305  48.8447876  44.0731740  35.0090026
  50.3258589  43.4432827  34.7363516  49.9180750  39.2147679  32.9543705
  49.7404556  38.1522063  33.5737057  50.7082083  39.3000646  31.8954092
  50.7648014  40.2181735  31.4483530  51.4216289  38.1190740  31.4518224
  52.3955014  38.3615511  31.2772312  51.4264878  37.4287921  32.2015245
  50.8322094  37.4971274  30.2066618  51.5321194  36.8018178  29.4785412
  49.5569450  37.7486460  29.9447153  49.0730077  38.3459982  30.6292910
  48.9381864  37.1937500  28.7600312  48.7404052  37.9500331  28.1001392
  49.6076261  36.5803201  28.2882566  47.6697444  36.4278951  29.0309314
  47.1084884  36.4991537  30.1199195  47.2299814  35.6727820  28.0359120
  47.8282227  35.6831212  27.1841219  46.0075144  34.8996881  28.1459772
  45.4629541  35.3096455  28.9004532  45.2299412  34.9662668  26.8272778
  45.8661773  34.7810346  26.0931023  44.5162386  34.2821704  26.8632873
  44.5868049  36.2975966  26.5627352  45.3524480  37.4163687  26.2504137
  46.3401224  37.3445448  26.1820789  44.7422840  38.6595143  26.0261376
  45.3174869  39.4531549  25.8011548  43.3672825  38.7799104  26.1181239
  42.9302737  39.6638108  25.9647988  42.5984138  37.6631414  26.4250063
  41.5896503  37.7392412  26.4857276  43.2094932  36.4360092  26.6520627
  42.6457583  35.6402325  26.8826955  46.2383753  33.4411063  28.5206374
  47.3098909  32.8871059  28.2661992  45.2389407  32.8423305  29.1660406
  44.4296611  33.4666927  29.3820667  45.2747358  31.4289451  29.5399153
  45.9734842  31.0123090  28.9857077  45.4380147  31.1762580  31.0602436
  45.4703733  30.1858422  31.1999413  46.7582155  31.7363200  31.5576424
  46.8866889  31.4900270  32.5170449  47.5087112  31.3589615  31.0162601
  46.7549414  32.7317391  31.4698298  44.2696614  31.7339529  31.8680387
  44.3917579  32.7190352  31.9664528  43.4269608  31.5630511  31.3613137
  44.1394806  31.1157028  33.2468645  44.9746330  31.2888386  33.7655074
  43.3597158  31.5239051  33.7187847  43.9992947  30.1319731  33.1545284
  43.9418700  30.8562948  29.0648801  42.9505059  31.5907472  28.9653822
  43.9359771  29.5729137  28.7126894  44.8595308  29.0964983  28.7992392
  42.7283581  28.8912426  28.2431035  42.0933945  29.5674222  27.8810035
  43.0776156  27.8583475  27.1606725  43.7851326  28.2494145  26.5743899
  43.4320746  27.0405786  27.6138145  41.9016570  27.4393521  26.2737401
  41.0743208  27.9039257  26.5920235  42.0927675  27.7115585  25.3299767
  41.6603729  25.9273664  26.3093676  41.6610570  25.5807234  25.3808057
  42.3732130  25.5005882  26.8484004  40.3040876  25.5964392  26.9499074
  40.0963893  26.3023538  27.6419146  39.5920693  25.6445093  26.2345213
  40.2508964  24.2480673  27.5994262  41.1342663  23.7975048  27.4898768
  40.0471244  24.3603790  28.5694860  39.5362075  23.7036657  27.1645829
  42.0777745  28.1937898  29.4362283  42.7292712  27.4063366  30.1251828
  40.8028643  28.4839596  29.6780932  40.3715940  29.1519985  29.0123884
  40.0811893  27.8930842  30.8055423  40.6791141  27.1980676  31.2282666
  39.6827737  28.9525581  31.8629324  39.2138333  28.4769816  32.6023991
  40.9152378  29.6150737  32.4684771  41.7210135  29.3738546  31.9293704
  40.7952465  30.6071745  32.4641037  41.0360232  29.2977150  33.4084746
  38.7523887  29.9953568  31.2532247  38.7425836  30.8070394  31.8359367
  39.0824285  30.2375837  30.3421550  37.8302077  29.6148002  31.1885650
  38.8008537  27.2017812  30.3553090  38.3275400  27.4101971  29.2312539
  38.2458314  26.3849600  31.2470350  38.7822825  26.2994280  32.1431993
  36.9964532  25.6670404  31.0021360  36.8016812  25.6743181  30.0363178
  37.0619075  24.2592838  31.6050208  37.4774954  24.3308965  32.5160062
  36.1226166  23.9195232  31.7037899  37.8506966  23.2248576  30.8118279
  37.3930228  23.0453763  29.9507941  38.7739429  23.5543927  30.6603425
  37.9404272  21.9072912  31.5850253  37.0177661  21.6539559  31.8660801
  38.3095033  21.2154236  30.9675894  38.7976345  22.0061959  32.7692531
  39.5166260  22.7135382  32.7688196  38.6958471  21.2276784  33.8475507
  37.7460376  20.3067836  33.9242425  37.1054112  20.1653147  33.1724670
  37.6681245  19.7386014  34.7521842  39.5309931  21.3844463  34.8683430
  40.2512878  22.0812336  34.8102997  39.4457086  20.8172489  35.6815303
  35.9180779  26.4695581  31.7290625  36.0730995  26.7809165  32.9038208
  34.8301615  26.7931410  31.0468322  34.8027797  26.4505148  30.0702061
  33.7646359  27.5773792  31.6582868  34.1555590  28.0615149  32.4659165
  33.3159311  28.6527077  30.6601798  34.0751798  29.3193662  30.5495548
  33.1797593  28.2085101  29.7555259  32.0567668  29.4295370  30.9921309
  31.3273904  28.7873142  31.2025134  32.2367587  30.0179043  31.7734969
  31.6175158  30.2951045  29.8240241  30.9999494  31.3330870  30.0062383
  31.9593533  29.8742409  28.6117605  31.6887960  30.3941152  27.7829467
  32.5021466  29.0153974  28.5251507  32.5708306  26.7484096  32.1587908
  31.8889661  26.0912300  31.3750340  32.3388331  26.7582742  33.4656427
  33.0150968  27.3154641  34.0257934  31.2140842  26.0350184  34.0556833
  30.7879410  25.4823747  33.3485086  31.6654517  25.1794936  35.2497195
  32.2081321  25.7583104  35.8569741  30.8475826  24.8642701  35.7300769
  32.4930186  23.9703022  34.8791830  31.8863845  22.7841018  34.4535217
  30.8895234  22.7309635  34.4036996  32.6484565  21.6751403  34.0980646
  32.2051156  20.8363906  33.7877218  34.0384040  21.7441095  34.1768952
  34.8041111  20.6581406  33.8266465  35.5518036  20.5589145  34.4810784
  34.6639608  22.9069486  34.5974400  35.6580302  22.9551472  34.6489371
  33.8887736  24.0100944  34.9497083  34.3386950  24.8467131  35.2575700
  30.1954382  27.0712699  34.5302708  30.5501011  28.0081664  35.2389569
  28.9350618  26.9132804  34.1392099  28.7593103  26.0855166  33.5436861
  27.8904710  27.8592330  34.5370967  28.3543297  28.6986896  34.8520790
  26.9577656  28.1706774  33.3571806  26.6586524  27.3058485  32.9697194
  26.1809767  28.6797500  33.7100447  27.6309868  28.9867962  32.2741236
  28.2926818  29.9891733  32.6034820  27.4891341  28.6390675  31.0833098
  27.0638881  27.3385280  35.7121529  27.0387230  26.1352339  35.9837022
  26.4095068  28.2648473  36.4093592  26.5650508  29.2453402  36.0700015
  25.5473689  27.9524458  37.5502030  25.3745754  28.8240825  38.0541921
  24.1692002  27.5023721  37.0548792  24.2725964  26.6736045  36.5210529
  23.5795831  27.3462313  37.8379339  23.5079946  28.5601942  36.1667854
  23.5084872  29.4349098  36.6618060  24.0572962  28.6615041  35.3315555
  22.0764918  28.2338950  35.7666894  21.1788442  29.0544103  35.9470350
  21.8650217  27.0597560  35.1820913  20.9367406  26.7733378  34.9031006
  22.6644250  26.4460312  35.0173907  26.1352233  26.9548257  38.5455177
  25.5655261  25.8933526  38.8035528  27.2704965  27.3345970  39.1200206
  27.6146241  28.2771937  38.8023216  27.9896340  26.5307597  40.1044295
  27.5015328  25.6772854  40.1781371  29.4972012  26.4870844  39.7826384
  29.8502656  27.4150513  39.8462294  30.2421608  25.6099603  40.7832110
  31.2202051  25.6381161  40.5853179  30.0786172  25.9482369  41.7081982
  29.9143934  24.6704875  40.7099412  29.7333155  25.9859569  38.3556789
  29.1459107  26.5109613  37.7368801  30.6881320  26.1741166  38.1139200
  29.4649318  24.5122534  38.1563572  28.5109273  24.3149073  38.3795433
  29.6423708  24.2685054  37.2031519  30.0649245  23.9818459  38.7539345
  27.8052882  27.2561662  41.4325206  27.8582888  28.4889201  41.4763224
  27.5750145  26.5016808  42.5024673  27.5441069  25.4782784  42.3152715
  27.3827115  27.0791871  43.8300847  27.0775432  28.0293831  43.7248428
  26.3123779  26.2856969  44.6010012  25.4355818  26.3843536  44.0891102
  26.5681534  25.3008376  44.5473727  25.9886650  26.5757444  46.0845444
  25.0489897  26.2747995  46.2702743  26.9481783  25.8586458  47.0322536
  27.8827173  26.1637142  46.8507207  26.7027840  26.0734258  47.9772172
  26.8838428  24.8721671  46.8850981  25.9416142  28.0673335  46.3613206
  25.2338303  28.4927724  45.7945273  25.7306431  28.2237362  47.3276178
  26.8294747  28.4778693  46.1455568  28.6965873  27.0757539  44.5984340
  29.3902877  26.0596019  44.6409175  29.0305312  28.2091020  45.2071626
  28.3532873  28.9891076  45.0742078  30.2535399  28.3393897  45.9981151
  30.5640381  27.4128644  46.1850288  31.2920935  29.2421416  45.3054027
  30.8337070  30.0782386  45.0280138  32.4634993  29.5466417  46.2411212
  33.1087038  30.1478866  45.7761785  32.1203978  29.9939383  47.0641693
  32.9178005  28.6943248  46.4877493  31.8340624  28.5575731  44.0520039
  32.1196974  27.6339511  44.2926056  31.0991547  28.5044025  43.3802000
  33.0078403  29.2887176  43.4284383  33.7529176  29.3406343  44.0908079
  33.3129351  28.7921536  42.6182437  32.7223739  30.2101754  43.1703928
  29.8871718  28.9588560  47.3366728  28.9887384  29.8024051  47.4105064
  30.5371113  28.5029437  48.4001566  31.2177053  27.7499102  48.2104874
  30.2788210  29.0524459  49.7190877  29.4303964  29.6022794  49.7014321
  29.9961571  27.9502116  50.7299159  30.7142358  27.2816417  50.6553892
  29.9641723  28.3610522  51.6230951  28.6799781  27.2395438  50.5019308
  28.0346925  27.8879481  50.1463872  28.8329524  26.4872568  49.8900165
  28.1059748  26.6766792  51.7837770  27.9001800  27.4670092  52.7392371
  27.8547628  25.4519977  51.8292392  31.4336551  29.9281432  50.2024434
  32.4492855  29.4258755  50.6856070  31.2649176  31.2409821  50.0770334
  30.3520211  31.5221313  49.6592714  32.2813025  32.1973443  50.4934935
  33.1446767  31.6984307  50.5280217  32.3012049  33.4136467  49.5631998
  31.5035268  33.9595393  49.7504351  33.5826384  34.2157493  49.7748619
  33.5885148  34.9990932  49.1574935  33.6218695  34.5348797  50.7192615
  34.3720410  33.6349671  49.5855693  32.1982623  32.9029576  48.1238304
  32.9801591  32.3004247  47.9486291  31.3609636  32.3538902  48.0493675
  32.1653277  33.9850355  47.0779988  33.0023268  34.5299282  47.1330843
  32.0976762  33.5716916  46.1701794  31.3735805  34.5765407  47.2329182
  31.9872861  32.6534677  51.9264512  31.0831348  33.4585927  52.1616132
  32.7537964  32.1336127  52.8792390  33.4771636  31.4685436  52.5432629
  32.5759542  32.4845711  54.2858368  33.1300395  31.8555155  54.8419525
  33.0599641  33.9203336  54.5499646  32.7101448  34.5043870  53.8153239
  32.6700330  34.2218349  55.4232096  34.8676216  34.1385260  54.6331230
  35.3053259  33.4558668  54.0515532  31.1149451  32.3263839  54.7090225
  30.4611599  33.2959361  55.1066699  30.5841515  31.1154580  54.5565404
  31.2236219  30.4042022  54.1606469  29.2051925  30.8494415  54.9292323
  29.0848512  29.8415369  55.0703116  29.0155814  31.2790306  55.8400593
  28.1685020  31.3342912  53.9303652  27.1288597  30.6947241  53.7693811
  28.4334420  32.4641374  53.2788759  29.3378421  32.9097134  53.5295203
  27.5103567  33.0162504  52.2921957  26.5838990  32.9899592  52.6752923
  27.9038826  34.4405519  51.9126323  28.8181350  34.4256469  51.4874061
  27.2470573  34.7900864  51.2314068  27.9360804  35.3868105  53.0630997
  28.8727944  35.3077609  54.0717657  29.5932799  34.6144107  54.1341372
  28.6742154  36.2841867  54.9385113  29.2071893  36.4530793  55.7612859
  27.6422592  36.9984062  54.5254326  27.1641921  36.4623341  53.3543341
  26.3946808  36.8000801  52.8212703  27.5360647  32.1660754  51.0350332
  28.6020932  31.7701911  50.5637213  26.3609343  31.8812874  50.4945091
  25.5401109  32.2584322  50.9962558  26.2799414  31.0912863  49.2823356
  27.0996500  30.5279972  49.1999146  25.0372013  30.2045402  49.2879253
  24.2339205  30.7966718  49.3818890  24.9916568  29.7290645  48.4062578
  25.0037663  29.1740804  50.3902868  25.8874915  28.7180144  50.4436011
  24.7940044  29.6205799  51.2553100  23.9338916  28.1387351  50.0989087
  23.0435022  28.5824899  50.1086263  24.1088388  27.7335708  49.2076111
  23.9327609  27.0301780  51.1412182  24.8814782  26.8047959  51.3795675
  23.4605234  27.3555760  51.9650706  23.2484305  25.7926096  50.6471125
  22.2618964  25.9437793  50.6450774  23.5617932  25.5938902  49.7207058
  23.4737519  25.0313641  51.2517062  26.2197370  32.0445459  48.1019113
  25.7175606  33.1630228  48.2159212  26.7646342  31.6121749  46.9786271
  27.1871812  30.6645687  47.0310245  26.7592357  32.4223018  45.7755015
  25.9697382  33.0184610  45.7884974  28.0514395  33.2211980  45.6589537
  28.6166045  32.8361474  44.9304796  27.8369216  34.1739092  45.4453551
  28.5490922  33.1790276  46.5245982  26.6256462  31.4517209  44.6273009
  27.1469388  30.3335276  44.6862809  25.8893325  31.8514082  43.6038952
  25.4790853  32.7951300  43.6942691  25.6972101  30.9897596  42.4507293
  26.3162428  30.2195829  42.5699781  24.2213196  30.5645647  42.3100680
  23.6593965  31.3591974  42.4494606  23.9689053  29.9459023  40.9353899
  23.0117416  29.6748911  40.8656297  24.1790963  30.6170481  40.2279763
  24.5526592  29.1451405  40.8208739  23.9080823  29.5578425  43.4286213
  24.3989944  28.7088411  43.2326293  24.2575401  29.9321263  44.2891490
  22.4334341  29.2474951  43.5964734  22.0789086  28.8613883  42.7463639
  22.3174386  28.5901340  44.3391459  21.9418669  30.0886967  43.8131472
  26.1615615  31.7430296  41.2312228  25.7546447  32.8900013  41.0256585
  27.0466716  31.1242480  40.4541802  27.3311834  30.1883261  40.7688726
  27.5343545  31.7773967  39.2648626  26.7348744  32.0883421  38.7007247
  28.0269292  32.6369480  39.5323413  28.4400212  30.9335647  38.4148149
  28.6088074  29.7447145  38.6450571  29.0352275  31.5788195  37.4279878
  28.7933731  32.6035192  37.3799259  29.9414544  30.9451997  36.4895515
  29.6559192  29.9905017  36.3587871  29.9419306  31.7412518  35.1806838
  30.2462660  32.6952083  35.3728323  30.8748187  31.1364157  34.1572435
  30.3812247  30.9625598  33.3000947  31.6358713  31.7643363  33.9706111
  31.2465955  30.2683280  34.4992185  28.6098513  31.7942966  34.6620249
  28.4947225  31.1242241  33.9209458  31.3569247  30.9481536  37.0466693
  31.8371358  31.9916203  37.4962117  32.0120461  29.7903076  37.0565420
  31.4806174  28.9796468  36.7072948  33.3865425  29.7192135  37.5371481
  33.7105178  30.6485304  37.6953383  33.5501571  28.9205226  38.8514263
  34.4686197  29.0946942  39.1967591  32.5734475  29.4114079  39.9129440
  31.6679847  29.5235028  39.5057366  32.5247439  28.7429368  40.6550083
  32.8875000  30.2887549  40.2744607  33.4126619  27.4523208  38.6136477
  34.3162959  27.0145967  38.6306548  32.8376739  27.0402540  39.3272413
  32.9886064  27.2869755  37.7183942  34.2366704  29.0981166  36.4472223
  33.8396553  28.1147329  35.8281645  35.3684970  29.7300202  36.1583705
  35.5364992  30.5965251  36.7113493  36.2922595  29.2364420  35.1445429
  35.7954757  28.6526551  34.5137554  36.9794522  30.3987605  34.4263209
  37.6840879  30.7588848  35.0334947  37.3972260  30.0401831  33.5953382
  36.0865000  31.5718428  34.0196278  35.5855089  31.8914583  34.8161163
  36.9590132  32.7017918  33.4825757  37.4715443  32.3780008  32.6876340
  36.3796666  33.4709504  33.2151312  37.5975566  32.9959494  34.1940050
  35.0702961  31.1369630  32.9957024  34.4917570  30.4108110  33.3747443
  34.4910888  31.9142051  32.7374032  35.5362132  30.7897166  32.1774804
  37.3472932  28.3945708  35.8554428  37.8560512  28.7899906  36.9046971
  37.6715411  27.2427181  35.2772137  37.1563010  27.0399741  34.3943176
  38.6725055  26.3383798  35.8427370  39.0110096  26.7397556  36.6932623
  38.0975052  24.9408017  36.0864110  37.9229197  24.5283638  35.1952742
  39.1035164  24.0866628  36.7898746  38.6622846  23.5676171  37.5285241
  39.5205903  23.4387642  36.1450903  39.8286077  24.6585449  37.1863825
  36.8144526  25.0271461  36.8783686  36.2724482  24.1975221  36.7313850
  37.0273068  25.1166701  37.8529324  36.2878421  25.8251466  36.5785043
  39.8493228  26.2181557  34.8758987  39.6793527  25.7942953  33.7307181
  41.0397419  26.5920014  35.3397680  41.0480714  26.9239208  36.3145572
  42.2150156  26.5178990  34.4908466  42.1954085  25.6432144  33.9652542
  42.1766537  27.2662600  33.7974772  43.5307949  26.6113294  35.2459359
  43.5641145  26.4710836  36.4729085  44.6431461  26.8224729  34.5231951
  44.7400730  26.7993102  33.0529048  44.0811513  27.4254715  32.6472482
  44.5921248  25.8763577  32.7047857  46.1578834  27.2589301  32.8108356
  46.2207747  28.2483955  32.8455901  46.4993975  26.9152786  31.9445304
  46.8955624  26.6392966  33.9550419  47.7817958  27.0740431  34.0837736
  47.0097084  25.6609814  33.8171978  45.9722648  26.9223246  35.1308027
  46.1102122  26.1681736  35.8071073  46.2687856  28.2726454  35.7743361
  47.1605637  29.0050972  35.3335638  45.5282350  28.5985237  36.8240399
  44.8075475  27.9016350  37.0870926  45.7385647  29.8498188  37.5303904
  46.2266275  30.4794616  36.9374397  44.3975985  30.4681488  37.9911103
  43.8282949  30.6639151  37.1682610  43.6564538  29.5318017  38.9311793
  44.1836846  29.4089339  39.7753050  42.7590759  29.9166640  39.1579518
  43.5287959  28.6396844  38.4922941  44.6465483  31.7075505  38.6694424
  44.4049107  31.6274702  39.6418515  46.6269634  29.5473818  38.7406344
  46.5862444  28.4418645  39.2835558  47.5235691  30.4852129  39.1040046
  47.9062044  31.6921890  38.3489788  47.0996285  32.2181388  38.0936317
  48.4268608  31.4480880  37.5333370  48.7626397  32.4474596  39.3422164
  48.1989149  32.9507135  39.9846678  49.3934094  33.0549337  38.8763614
  49.5035463  31.3435259  40.0355270  49.8755467  31.6565187  40.9057110
  50.2334410  30.9881906  39.4596836  48.4192926  30.2881338  40.2556735
  48.8570017  29.3764014  40.2122732  47.7058981  30.4772556  41.5992655
  48.1549356  29.9833154  42.6288933  46.6033119  31.2193086  41.5839690
  46.3388606  31.5870678  40.6480819  45.8403996  31.4840386  42.7957680
  46.0710774  30.7883550  43.4694987  46.0509600  32.9235751  43.3083915
  45.5980385  33.5402055  42.6693211  45.3900543  33.1179281  44.6617594
  46.0890726  33.1370873  45.3776220  44.8857879  33.9813997  44.6680246
  44.7575345  32.3637821  44.8378347  47.5276258  33.2592905  43.4001977
  47.8001299  33.7854746  42.5936217  47.6948311  33.8002565  44.2246406
  48.0593262  32.4128164  43.4420205  44.3681841  31.3449866  42.4549423
  43.9634166  31.5601013  41.3114569  43.5813308  30.9338604  43.4360938
  44.0742188  30.7059343  44.3233046  42.1514085  30.8196392  43.2598759
  41.9828234  30.5367664  42.3297920  41.5593079  29.9483579  44.3620260
  41.9348285  30.2443215  45.2356180  40.5695626  30.0625538  44.3578397
  41.8762539  28.4791560  44.1724473  41.7620561  27.9348100  43.0759460
  42.2562459  27.8208090  45.2552835  42.4856110  26.8463435  45.1972439
  42.3162089  28.2890557  46.1378726  41.6211705  32.2438043  43.3927872
  41.8400371  32.8897883  44.4172110  40.9356237  32.7296323  42.3647460
  40.8121313  32.0612225  41.5722443  40.3996658  34.0895047  42.3486749
  40.7587405  34.5423468  43.1769052  40.7453511  34.7956522  41.0145132
  40.3219000  34.2696785  40.2758510  40.1775340  36.2109677  40.9888480
  40.3518809  36.6229452  40.0962022  39.1939390  36.1765920  41.1531777
  40.6156200  36.7574471  41.6995399  42.2487570  34.8457084  40.7628012
  42.6073851  33.9170374  40.8027152  42.3998973  35.2128529  39.8479190
  42.9837261  35.7020142  41.7590119  42.8424345  35.3397737  42.6808907
  43.9611413  35.6990453  41.5470883  42.6377139  36.6394441  41.7152095
  38.8836233  34.1153670  42.4593385  38.2052705  33.4055605  41.7232480
  38.3532723  34.9285883  43.3682340  39.0458289  35.4258390  43.9650432
  36.9036112  35.1046897  43.5114048  36.4879791  34.4607865  42.9048543
  36.4366912  35.1229564  44.9864079  36.9451537  35.8440887  45.4560345
  34.9261750  35.3484581  45.0639871  34.6473230  35.3878616  46.0204676
  34.6968315  36.2081993  44.6124080  34.4561507  34.5958211  44.6085009
  36.7249166  33.8004924  45.6897279  37.6958052  33.5926678  45.5941339
  36.5115774  33.9049512  46.6588924  35.9193210  32.6324314  45.1423731
  36.1328337  32.5119863  44.1753083  36.1580206  31.8050324  45.6470130
  34.9471142  32.8254013  45.2516639  36.6618251  36.4893454  42.9100828
  36.9615833  37.5014790  43.5455580  36.1526402  36.5193507  41.6812951
  35.9486370  35.5877405  41.2709354  35.9092483  37.7771501  40.9867749
  36.7025769  38.4180329  41.1781204  35.9714395  37.6066761  39.9656369
  34.6129321  38.5062235  41.2801501  33.7618675  38.0200024  42.0301421
  34.4403418  39.6603094  40.6359852  35.2200288  39.9105739  39.9852035
  33.2597711  40.5065254  40.8229620  33.3033861  40.9076325  41.7710495
  33.2975240  41.7318024  39.9214228  33.4844476  41.4240322  38.9838765
  32.3913324  42.1639323  39.9439526  34.3240121  42.7775166  40.2839001
  34.2497525  43.0016998  41.2510782  35.2373302  42.4376024  40.0789355
  34.1050841  44.0499682  39.4865022  33.2030149  44.4129805  39.7216155
  34.8084041  44.7090428  39.7552075  34.1743005  43.8374536  38.0408689
  35.0806496  43.6638257  37.6346848  33.1232840  43.8571263  37.2229995
  31.9026844  44.0754417  37.6867570  31.7508105  44.2499365  38.6592347
  31.1198419  44.0674634  37.0581840  33.2901082  43.6563735  35.9245816
  34.2132962  43.5088545  35.5595773  32.5040729  43.6515680  35.3089986
  31.9122535  39.8338753  40.6488893  30.9566433  40.2198120  41.3220572
  31.8213743  38.8430103  39.7627925  32.6953689  38.6190271  39.2616477
  30.5544356  38.1446156  39.5432196  29.8832245  38.8377874  39.2239492
  30.6636619  37.1161737  38.4087868  29.7585437  36.7284788  38.2512191
  30.9793164  37.5885174  37.5887846  31.6269601  35.9900906  38.7226763
  32.7567418  36.2204976  39.1424727  31.1742715  34.7606086  38.5405751
  31.7607420  33.9726638  38.7358371  30.2411532  34.6117766  38.2055433
  29.9646312  37.5118634  40.8105382  28.7506660  37.5384884  40.9982653
  30.8089908  36.9539060  41.6744458  31.8028404  36.9770603  41.3962086
  30.3246307  36.3621859  42.9149343  29.3488671  36.1491846  42.8121151
  31.0603057  35.0610140  43.2519000  32.0233653  35.2959995  43.4383752
  30.6563496  34.6933874  44.0992177  31.0667003  33.9222395  42.2260692
  31.6283999  34.1879750  41.4558048  31.6501218  32.6955894  42.8896285
  31.0914253  32.4400078  43.6817076  31.6663261  31.9331898  42.2396391
  32.5854362  32.8871120  43.1942187  29.6718728  33.6152167  41.7039513
  29.2923066  34.4295050  41.2625784  29.7197764  32.8681587  41.0386065
  29.0814524  33.3448684  42.4652807  30.4801053  37.3504979  44.0724974
  29.7769007  37.2493975  45.0906339  31.4031214  38.3003419  43.9421954
  31.9381590  38.2875318  43.0708248  31.5883579  39.2683743  45.0143362
  31.8526558  38.7766661  45.8495126  32.7536320  40.2267777  44.7243977
  32.7103846  40.4837178  43.7694855  32.6576380  41.0149238  45.3131522
  34.1633285  39.6398797  44.9735878  34.3209776  38.9101027  44.3164469
  35.1998537  40.7264774  44.7987535  35.0291337  41.4664306  45.4515819
  36.1151512  40.3518985  44.9593247  35.1536420  41.0927034  43.8674592
  34.2900815  39.0444804  46.3584829  33.6215465  38.3063576  46.4728316
  35.2133480  38.6744620  46.4854878  34.1208054  39.7517434  47.0480572
  30.2885051  40.0143070  45.2858651  29.8300848  40.0763678  46.4277798
  29.6437773  40.4771335  44.2222046  30.1168396  40.2919529  43.3123440
  28.3713433  41.1890999  44.3300157  28.5160292  42.0229740  44.8822313
  27.8631063  41.5947636  42.9503541  26.9034544  41.9393224  43.0344817
  28.7634978  42.6216465  42.3492537  28.2480210  43.2264763  41.7293298
  29.1832816  43.1895039  43.0680085  29.5007189  42.1816289  41.8224534
  27.8492355  40.4567721  42.0817069  28.7765738  40.2634261  41.7436965
  27.2910999  40.3440106  45.0194134  26.4691301  40.8645871  45.7798415
  27.3431249  39.0339482  44.8050654  28.1178475  38.7215458  44.1923406
  26.3701474  38.1322305  45.4011718  25.4391487  38.4540237  45.1286178
  26.5036821  36.7284757  44.8248916  27.4057565  36.3639174  45.0723750
  25.7949370  36.1447522  45.2332164  26.3631875  36.6629012  43.3227707
  27.1156428  37.1738095  42.9050989  26.4106474  35.7063054  43.0357481
  25.0592770  37.2479566  42.8450660  24.0345165  36.5765012  42.8315563
  25.0863518  38.5132019  42.4620878  24.2462652  38.9778163  42.1120992
  25.9643222  39.0294395  42.5194619  26.4085077  38.0746068  46.9195963
  25.3750932  37.8522874  47.5469164  27.5910261  38.1987585  47.5157209
  28.3975498  38.3048032  46.8915181  27.6837863  38.1797582  48.9808078
  26.8646663  37.7091103  49.3075954  28.9527642  37.4536509  49.5019299
  28.8893579  37.4119221  50.5030055  28.9863152  36.0099997  48.9768702
  29.7543860  35.5301560  49.3911688  28.1330025  35.5551238  49.2179601
  29.0926855  36.0251220  47.9868487  30.2609231  38.1780211  49.1414552
  30.2958876  38.2973503  48.1534653  30.2538072  39.0743217  49.5776014
  31.5256371  37.4333091  49.5898608  31.5442948  36.5397865  49.1500993
  32.3229088  37.9648593  49.3208881  31.5015317  37.3278192  50.5794490
  27.6128265  39.6102205  49.5276078  27.8033240  39.8481519  50.7204751
  27.2937024  40.5514570  48.6437556  27.1325291  40.2061276  47.6785542
  27.1864715  41.9470329  49.0308079  26.7599629  42.4730868  48.2695439
  26.5523303  42.0257617  49.8245368  28.5137691  42.5757054  49.3889434
  28.5824003  43.4199907  50.2838954  29.5600609  42.1848404  48.6679051
  29.3392898  41.4894671  47.9238990  30.9071513  42.6960834  48.9085479
  31.0754047  42.6845023  49.9028484  31.9354751  41.7958737  48.2363674
  31.6404762  40.8477342  48.3658786  31.9321870  42.0099297  47.2574092
  33.5801931  41.9827578  48.8642610  33.5645120  42.0862711  49.8651486
  31.0593329  44.1333338  48.4198505  30.6551051  44.4727284  47.3052652
  31.6511904  44.9754802  49.2533971  31.9735201  44.5603545  50.1448713
  31.8163804  46.3728002  48.9044400  31.7305735  46.4709568  47.9004821
  30.6598756  47.2002582  49.4857479  29.8060411  46.6398442  49.4529483
  30.9278249  47.5991835  50.9206858  31.9058666  47.5030593  51.1282054
  30.6567677  48.5541626  51.0690805  30.4034966  47.0124324  51.5450551
  30.4616640  48.3663996  48.6935417  31.0870511  48.3688708  47.9043871
  33.1923853  46.9131307  49.3136765  33.8332632  46.4131696  50.2482782
  33.6364999  47.9252985  48.5839296  32.9576732  48.2456393  47.8432259
  34.9344855  48.5469030  48.7744619  35.4854243  47.9753288  49.3760418
  35.5318568  48.7142090  47.3728021  35.2186199  47.8820747  46.8182255
  35.0069751  49.4987762  46.9209853  37.0002280  48.9279293  47.0193865
  37.3073365  49.8036973  47.4142242  37.8954288  47.8078052  47.5328662
  37.6063231  46.9386776  47.1309008  38.8438007  47.9939322  47.2761629
  37.8244464  47.7541484  48.5285265  37.0485655  48.9801615  45.5041888
  36.4807883  49.7365566  45.1748068  37.9929974  49.1199203  45.2014913
  36.7043940  48.1191545  45.1257354  34.7240634  49.9009206  49.4603896
  34.0479973  50.7650471  48.9076392  35.2956630  50.0935463  50.6473699
  35.8603584  49.3003926  50.9981365  35.1246562  51.3544590  51.3936706
  34.5771889  51.9720506  50.7992564  34.4173029  51.0983569  52.7322494
  34.8644234  50.3219788  53.1747314  34.5241675  51.9139923  53.3001778
  32.9472179  50.7960230  52.5844846  32.5388089  49.6358017  52.5078977
  32.1308963  51.8406480  52.5917438  31.1422163  51.7059987  52.5026403
  32.4977276  52.7666635  52.6850613  36.4292903  52.0781452  51.7112506
  37.4200283  51.4399956  52.0572812  36.3981563  53.4104514  51.6636372
  35.4787590  53.8119366  51.3767796  37.5651653  54.2484819  51.9887462
  37.8988379  53.9423215  52.8945002  38.7198973  54.0532584  50.9842205
  39.5125236  54.5246650  51.3426537  38.8860490  53.0816280  50.9044085
  38.4450401  54.5940512  49.5968148  38.7236229  55.9188383  49.2844374
  39.0780341  56.5296230  49.9868011  38.5154581  56.4005097  48.0033839
  38.7209954  57.3674124  47.7974164  38.0294457  55.5632392  47.0191420
  37.8836025  55.9131398  46.0927510  37.7483807  54.2463853  47.3197337
  37.3848526  53.6226348  46.6051320  37.9585137  53.7656778  48.6003427
  37.7566883  52.8067360  48.8085113  37.2205039  55.7366582  52.1260006
  36.0119756  56.0610571  52.1848278  37.9237662  56.7189303  52.1931187
  33.9778604  56.6842138  50.5296550  33.5642948  57.0719039  51.2714203
  34.6200885  55.9779010  50.6741103  34.8470304  57.4938743  49.6365226
  35.7407235  57.0128244  49.4930771  35.0842993  58.3813668  50.0940098
  34.1495565  57.7420837  48.3081596  34.8237941  57.9346047  47.6074569
  33.5119643  58.4955204  48.4011402  33.5005897  56.4838112  48.1259558
  34.1292748  55.7578210  47.8483314  32.7379068  56.5283731  47.4823457
  32.9794624  56.2092937  49.5337426  32.1249891  56.7223122  49.6344469
  32.7646973  54.7279955  49.6903330  33.5730061  54.0524847  50.3242068
  31.6327308  54.2488317  49.1894180  30.9940443  54.9707641  48.7930570
  31.3241425  52.8277392  49.2006211  32.0963901  52.3472793  49.5555887
  29.9941419  52.5298137  49.8873669  30.0523234  52.8067218  50.8421181
  29.2696528  53.0365261  49.4273331  29.6290413  51.0451692  49.8480082
  29.4556557  50.7881612  48.8942607  30.4102858  50.5184525  50.1920048
  28.4080538  50.7007311  50.6736019  28.5158472  50.4068751  51.8612480
  27.2335779  50.7442157  50.0491330  26.3736786  50.5117588  50.5363578
  27.2111742  51.0165653  49.0669427  31.2127889  52.5138516  47.7210469
  30.4788160  53.1952735  46.9926837  31.9937785  51.5584918  47.2447319
  32.6138656  51.1054990  47.9214116  31.9205293  51.2296751  45.8407564
  31.2088336  51.8057938  45.4461296  33.2744147  51.4170328  45.1370024
  33.9139138  50.7519601  45.5185207  33.1164157  51.2428054  43.6434914
  34.0060973  51.3381119  43.1954687  32.7450310  50.3349021  43.4455545
  32.4920706  51.9378577  43.2860891  33.8427184  52.8142359  45.3825369
  33.2734634  53.4742087  44.8982823  33.7920642  53.0021400  46.3620686
  35.2691580  52.9627095  44.9292084  35.3296855  52.7816242  43.9474358
  35.5849318  53.8934143  45.1148359  35.8477870  52.3116690  45.4225923
  31.4327946  49.7922200  45.7116925  31.9720594  48.8841026  46.3484917
  30.3389432  49.6103572  44.9803252  29.9204281  50.4748051  44.5944950
  29.7944078  48.2789888  44.7578092  29.9658770  47.7244740  45.5587197
  28.2917735  48.3069443  44.4689470  28.0117662  47.4106361  44.0640784
  27.5075870  48.5746249  45.7459281  27.1976186  47.7072020  46.1416530
  28.0905831  49.0492810  46.4093180  26.7101447  49.1459036  45.5415698
  27.9930352  49.3371540  43.5083277  28.3743093  50.2148736  43.8128345
  30.5721600  47.6933516  43.5885463  31.2296064  48.4318535  42.8455125
  30.4738612  46.3839765  43.3985143  29.8315412  45.8913091  44.0374156
  31.2390003  45.7316322  42.3482182  31.9695967  46.3868601  42.0319566
  32.0176441  44.5704279  42.9719516  31.3806634  43.9025193  43.2725187
  32.6631466  44.2518025  42.3225192  32.7936553  45.0611439  44.2008008
  32.1718930  45.5937531  44.7781683  33.3475363  43.9000493  44.9791941
  33.9692494  43.3644407  44.4018543  33.8529206  44.2332160  45.7795444
  32.6003819  43.3070495  45.2895818  33.8887686  46.0135354  43.7851551
  33.4913567  46.8058569  43.3161237  34.3905031  46.3288334  44.5935916
  34.5256295  45.5502876  43.1640723  30.4635608  45.2689564  41.1242081
  30.9620719  44.4525703  40.3576825  29.2621011  45.8109447  40.9302411
  28.9806875  46.5122843  41.6458940  28.4083184  45.4423685  39.7928600
  28.3363593  44.4412769  39.7827349  27.0093783  46.0656947  39.9334908
  27.1021169  47.0479776  40.0015852  26.4640432  45.8093500  39.1498230
  26.2749363  45.5979969  41.1635130  26.1807114  46.2417003  42.3602693
  26.5343717  47.1607901  42.5467295  25.5340941  45.4546004  43.2753407
  25.3533346  45.7074296  44.2312855  25.1770992  44.2838429  42.6904069
  24.5042894  43.1735634  43.2207005  24.2123464  43.1752130  44.1813371
  24.2719733  42.1154780  42.3860044  23.7903222  41.3063018  42.7193003
  24.7007401  42.1330354  41.0402181  24.5232403  41.3434599  40.4612652
  25.3658362  43.2294270  40.5086492  25.6539822  43.2339333  39.5580470
  25.6201817  44.3341876  41.3463666  29.0471319  45.8769178  38.4859977
  28.7946364  45.3051945  37.4287038  29.8518927  46.9217893  38.5803253
  29.9286461  47.3185402  39.5487073  30.5628459  47.4677623  37.4452729
  30.4092597  46.8819935  36.6672220  30.1611698  48.9268940  37.2603647
  30.4044693  49.4376420  38.0884896  30.6700722  49.3074473  36.4827977
  28.6761075  49.1388416  36.9983186  28.1647671  48.4122920  37.4535587
  28.4083181  50.0248512  37.3738312  28.3400869  49.1157081  35.5211453
  28.4970931  50.1219146  34.8278289  27.8926006  47.9662558  35.0249323
  27.6352366  47.8814398  34.0479784  27.8119722  47.1621932  35.6488493
  32.0315013  47.3681621  37.8220354  32.3610652  46.9739862  38.9371919
  32.9155734  47.6921654  36.8934492  32.5145120  47.9773674  35.9813316
  34.3487298  47.6421575  37.1620757  34.5499342  46.8417560  37.7077186
  35.1066637  47.6614579  35.8309496  34.4781735  47.3520941  35.1153127
  35.3766357  48.6074818  35.6445334  36.3401144  46.7986833  35.7859570
  37.0333968  47.1671125  36.4058638  36.1092623  45.8658664  36.0639822
  36.9378963  46.7390478  34.3957170  36.9710739  47.6743000  34.0306352
  37.8765394  46.3893417  34.4751196  36.1903411  45.8926090  33.4709081
  35.2732810  45.5910603  33.7397114  36.6592260  45.4979447  32.2885533
  37.8671464  45.8795720  31.8929284  38.4474219  46.4435140  32.4724098
  38.2061820  45.5916138  30.9879307  35.9263537  44.7274645  31.4922189
  35.0179487  44.4291728  31.8041554  36.2699969  44.4485738  30.6025362
  34.6804627  48.8894615  37.9766080  34.2684516  49.9910178  37.6095213
  35.3801756  48.7334728  39.1144052  35.6765324  47.4524668  39.7726462
  36.0431167  46.7953469  39.1227852  34.8648110  47.0837923  40.2160687
  36.7275035  47.8507954  40.7992640  37.6150876  47.9432633  40.3650450
  36.7629828  47.1828665  41.5327877  36.2182637  49.1507637  41.2755238
  36.9353611  49.6823178  41.7314180  35.4448129  49.0371933  41.9016105
  35.7665427  49.8564346  39.9912120  34.9343312  50.4035410  40.2486467
  36.8654578  50.7946571  39.4559427  37.9828246  50.7861237  39.9730805
  36.5295513  51.6171196  38.4607170  35.5412023  51.5263324  38.1397342
  37.4761778  52.5722922  37.8660938  38.4093145  52.2273786  38.0214946
  37.2332196  52.7414287  36.3629853  36.3359268  53.1601351  36.2473318
  37.9411315  53.3446712  36.0090417  37.2562928  51.4662115  35.5380903
  36.6023493  50.8183937  35.9263479  36.8874611  51.7812646  34.1247550
  37.5397051  52.4380770  33.7327280  36.8993733  50.9447765  33.5673263
  35.9660500  52.1810753  34.0863107  38.6152308  50.8362394  35.5816297
  38.8612730  50.6089130  36.5290383  38.6241253  49.9938914  35.0341285
  39.3026728  51.4686739  35.2115986  37.3493936  53.9415329  38.5076595
  36.2824202  54.5477324  38.4657068  38.4364329  54.4291978  39.0912986
  39.2632405  53.8063756  39.0732002  38.4362419  55.7531172  39.7069198
  37.5249970  56.1402565  39.6140229  38.8756952  55.7073818  41.1665215
  38.8450359  56.6333733  41.5268115  37.8885537  54.8848928  41.9774398
  37.1662756  54.5401242  41.3771907  38.3633946  54.1128906  42.4014170
  37.4823168  55.4562344  42.6909308  40.2788145  55.1423312  41.2787356
  40.9427633  55.8890977  41.2258137  40.3773567  54.6687200  42.1548941
  40.4389842  54.4976767  40.5293677  39.4052502  56.6261833  38.9253807
  40.1628883  56.1219819  38.0910993  39.3725475  57.9291816  39.1672195
  38.6779014  58.2320896  39.8686890  40.2720373  58.8391775  38.4706590
  40.6038394  58.3910230  37.6429647  39.5738940  60.1614519  38.1026601
  39.3558001  60.6690465  38.9620295  40.4521153  60.9817388  37.1849075
  40.1116248  60.9266014  36.2417050  40.4503049  61.9436069  37.4740103
  41.3953479  60.6364663  37.2110065  38.3405360  59.8913022  37.4193064
  38.4824422  59.1962807  36.7070818  41.4644405  59.1290237  39.3730852
  41.3015429  59.3618380  40.5761845  42.6641781  59.0521462  38.8086842
  42.6647760  58.7828619  37.8090124  43.8794418  59.3333214  39.5708099
  43.5816480  59.6425595  40.4705852  44.8424738  58.1229062  39.6331760
  45.6581215  58.4111231  40.1237665  44.2077388  56.9682833  40.4113728
  44.8653363  56.2231053  40.4901146  43.9513128  57.2859392  41.3213384
  43.3968097  56.6500324  39.9260446  45.2552626  57.6911156  38.2299346
  44.4496676  57.3199867  37.7683016  45.5570224  58.5057281  37.7328505
  46.3461016  56.6769709  38.2196558  46.0526300  55.8521476  38.7087998
  46.5766564  56.4304322  37.2751066  47.1629632  57.0477880  38.6675060
  44.6098428  60.5076106  38.9258733  44.3404561  60.8554344  37.7719329
  45.4861593  61.1493914  39.6868205  45.5610560  60.8040645  40.6577051
  46.2593520  62.2489885  39.1526312  46.1010083  62.3154883  38.1660593
  45.8489187  63.5807368  39.7798258  44.8688091  63.6926483  39.6536233
  46.0688468  63.5460864  40.7504297  46.5544254  64.7637132  39.1649858
  47.4819269  64.8321304  39.5549987  46.6407858  64.6171085  38.1721339
  45.8274992  66.0630668  39.4049804  46.1209693  66.7310736  38.7220359
  44.8434675  65.9073764  39.3200801  46.1076433  66.6262676  40.7799281
  45.6026789  66.0997533  41.4631665  47.0874684  66.5669544  40.9694263
  45.6848338  68.0612354  40.8652430  46.4683603  68.6446414  40.6635982
  44.9588532  68.2280318  40.2014914  45.3505718  68.2492444  41.7861265
  47.7296235  61.9760885  39.3947515  48.1662008  61.8615226  40.5438985
  48.4894309  61.8336511  38.3151376  47.9947716  61.9144496  37.4137732
  49.9151715  61.5824307  38.4430957  50.1819295  61.9194431  39.3448251
  50.2369343  60.0875340  38.2956190  49.6569302  59.5848013  38.9298934
  49.8959631  59.5870656  36.8908603  50.0501113  58.6029482  36.8455589
  48.9394649  59.7859473  36.6933298  50.4787388  60.0484678  36.2264843
  51.6896977  59.8130631  38.6615334  52.2741983  60.1769295  37.9440369
  51.8934432  60.2787146  39.5182028  51.9822734  58.3365819  38.8319465
  51.7858320  57.8598227  37.9767831  52.9440986  58.2159996  39.0698606
  51.4073529  57.9676612  39.5606535  50.6575580  62.4260151  37.4243722
  50.3472260  62.3951400  36.2376213  51.5472960  63.2762103  37.9250113
  51.6439445  63.2491558  38.9579165  52.3117693  64.1629153  37.0660807
  53.0742351  64.5734025  37.5975693  52.7316521  63.6250047  36.3145219
  51.4664078  65.2764480  36.4687703  51.7870582  65.8064656  35.4045002
  50.4067257  65.6584075  37.1764523  50.2784335  65.1637216  38.0756769
  49.5146990  66.6996997  36.6883190  48.9900291  67.0845331  37.4651367
  50.0633158  67.4541896  36.2922298  48.5442110  66.1828057  35.6372322
  47.8041971  66.9534662  35.0306228  48.5325053  64.8689088  35.4361010
  49.1933469  64.3314823  36.0314111  47.6545646  64.2571189  34.4540341
  47.2120136  64.9916604  33.9298219  48.4493685  63.3166006  33.5513919
  48.7721107  62.5382631  34.1025808  47.8360055  62.9639618  32.8336456
  49.6556453  63.9416691  32.8709606  49.3497416  64.7147521  32.3221915
  50.2949665  64.2507102  33.5708627  50.3658434  62.9554972  31.9649095
  51.2453223  62.2099723  32.3998893  49.9783396  62.9391014  30.6928364
  50.4187591  62.3135860  30.0222260  49.2306471  63.5647508  30.3992043
  46.5652278  63.4592410  35.1492960  46.7132419  63.0724520  36.3090184
  45.4772164  63.2163480  34.4261874  45.4987539  63.6271884  33.4641586
  44.3494051  62.4423669  34.9331764  44.5278178  62.1991154  35.8773208
  43.0250655  63.2027527  34.7766802  42.9748354  63.5298588  33.8260086
  42.2799179  62.5472705  34.9312285  42.7658065  64.4065814  35.6833616
  43.4276313  65.1169167  35.4723029  41.3673498  64.9182532  35.4310585
  40.6998204  64.1979083  35.6311506  41.1830926  65.7088382  36.0190012
  41.2742894  65.1939724  34.4717871  42.9121294  64.0155939  37.1436943
  43.8407439  63.6788593  37.3103046  42.7395842  64.8129165  37.7238631
  42.2537299  63.2953077  37.3663395  44.2848210  61.1735590  34.1052631
  44.5319595  61.2024320  32.9044497  43.9933675  60.0602700  34.7697482
  43.8513584  60.2051561  35.8026908  43.8766743  58.7471293  34.1391626
  43.5482591  58.8589414  33.2087286  45.2070572  57.9696747  34.1909204
  45.5490605  58.0108582  35.1420601  45.0035548  56.9999230  33.9835336
  46.3307589  58.4257955  33.2644830  46.8319966  57.6234558  32.9409250
  45.9355725  58.9111720  32.4862110  47.3060659  59.3575980  33.9812336
  46.8874040  60.2583467  34.0604048  47.4977613  58.9867357  34.8852154
  48.6219363  59.4980929  33.2257714  48.4218969  59.6935102  32.2621286
  49.1364426  60.2673727  33.6128371  49.4450824  58.2632167  33.3153878
  49.8879018  58.2232186  34.2106733  48.8579053  57.4626090  33.1977891
  50.1408643  58.2751948  32.5975646  42.8429617  57.9432462  34.9327042
  42.5158777  58.2812126  36.0755387  42.3339280  56.8827295  34.3185787
  42.6720889  56.7431535  33.3422510  41.3813995  55.9951755  34.9684459
  40.9438260  56.4533267  35.7161997  40.3713117  55.4432628  33.9540544
  40.8823182  55.0847509  33.1873108  39.8518780  54.7327982  34.4038384
  39.3711261  56.4607238  33.4010465  39.8438296  57.3108575  33.2631692
  38.9960177  56.1021041  32.5666470  38.2050086  56.7316182  34.3482636
  37.3211014  55.8520145  34.4643247  38.1655060  57.8211765  34.9678154
  42.2385840  54.8517684  35.4925870  43.1770360  54.4181516  34.8245381
  41.9401661  54.3685761  36.6848341  41.1463302  54.8180810  37.1637620
  42.7121153  53.2718697  37.2410530  43.1980447  52.8050243  36.5040748
  43.7325918  53.7964645  38.2399589  43.3971842  54.6458584  38.6461323
  43.8754945  53.1176477  38.9598204  44.5988239  53.9709865  37.7721363
  41.7482619  52.2824740  37.8899165  40.6249190  52.6360103  38.2226112
  42.1895443  51.0435071  38.0504154  43.1651766  50.8843977  37.7147582
  41.3725661  50.0031977  38.6452741  40.4045335  50.2856927  38.6004681
  41.5874847  48.7023283  37.8740292  41.4054676  48.8854401  36.9095076
  42.5394631  48.4297831  37.9930596  40.7175530  47.5171615  38.2847867
  40.7833840  47.3921997  39.2749083  39.2686700  47.7644061  37.9017646
  39.1996936  47.8894165  36.9113199  38.7098342  46.9809568  38.1763182
  38.9350387  48.5872841  38.3640427  41.2423137  46.2739187  37.5885557
  42.1916439  46.1108547  37.8612574  40.6835646  45.4833061  37.8457116
  41.1996136  46.4004825  36.5963378  41.7362344  49.7746857  40.1064109
  42.9122041  49.6235027  40.4432328  40.7342135  49.7821615  40.9795472
  39.8037557  49.9837665  40.5815162  40.9750095  49.5182208  42.3935015
  41.8459300  49.8933581  42.6468858  39.8489542  50.0927335  43.2563151
  39.0032262  49.7424727  42.9254486  40.0354622  49.8742035  44.1841709
  39.8053582  51.6145745  43.1325555  39.5352062  51.8594328  42.1996503
  38.8069170  52.2191467  44.1193937  39.0769659  51.9812816  45.0512584
  38.8001257  53.2124791  44.0159838  37.8944816  51.8562966  43.9315573
  41.1946797  52.1663653  43.3983859  41.8390142  51.7905745  42.7300653
  41.1802765  53.1640561  43.3202161  41.4869834  51.9100497  44.3212894
  41.0558569  47.9935317  42.4915468  40.0336898  47.3055749  42.5369776
  42.2823961  47.4813540  42.4922489  43.0461267  48.1979858  42.4940764
  42.5415030  46.0488405  42.4905786  41.6594789  45.5832844  42.2821848
  43.5988935  45.7754945  41.4098459  43.5106394  46.4846667  40.7165566
  44.4927522  45.8278612  41.8433161  43.4398745  44.4288843  40.7622513
  43.8053595  44.2979330  39.5769068  42.9591247  43.5007690  41.4310552
  42.8215409  42.5840965  41.0232106  43.0227730  45.4952679  43.8350732
  44.1929851  45.6343220  44.1818076  42.1518406  44.8040943  44.5588782
  41.2126448  44.7046997  44.1511552  42.5472951  44.2393936  45.8457371
  43.1150409  44.9167014  46.3320939  41.3367018  43.9182018  46.7160139
  41.6504775  43.4528493  47.5686925  40.5757184  45.1870119  47.0539431
  40.5750832  45.8058476  46.2647619  39.6281354  44.9637144  47.2942839
  41.0097594  45.6491606  47.8315825  40.4736357  43.0166926  46.0129853
  40.5619352  42.0865129  46.3847460  43.3711464  42.9670124  45.6659340
  44.0609669  42.5151263  46.5862734  43.2733332  42.3805740  44.4809692
  42.6555419  42.8545272  43.8036603  44.0025131  41.1608484  44.2031420
  44.0943284  40.6221072  45.0545249  43.4801442  40.5992146  43.5431031
  45.3706853  41.4523080  43.6421384  46.0628014  40.5406021  43.1864347
  45.7345396  42.7313634  43.6193959  45.0169866  43.3925801  43.9817605
  47.0336429  43.1475852  43.1243381  47.4905673  42.3661007  42.7060416
  46.8820396  44.2618935  42.1089034  46.0223847  44.1483399  41.6087155
  46.8765986  45.1464549  42.5765042  47.6452606  44.2354175  41.4623141
  47.8623537  43.6190433  44.3107978  47.4268419  44.4803489  45.0712130
  49.0356931  43.0233588  44.4887973  49.2624810  42.2841353  43.7978394
  49.9214877  43.4010337  45.5851729  49.3525429  43.5049604  46.4072477
  51.0230153  42.3562768  45.7448136  51.5856443  42.3765010  44.9255050
  51.5629437  42.5998330  46.5420542  50.4767833  40.9626769  45.9287670
  49.8389389  40.7055880  46.9588047  50.7080500  40.1146359  45.0509382
  50.5642725  44.7592339  45.3132740  50.6785579  45.5957992  46.2114022
  50.9578444  44.9682587  44.0603399  50.7466707  44.1725658  43.4090155
  51.6191578  46.1866716  43.6303707  51.7989152  46.7385210  44.4642476
  52.8850288  45.8326483  42.8478377  52.6063571  45.4560399  41.9694795
  53.4064336  46.6690146  42.7135150  53.7575403  44.8217342  43.5583969
  54.3510898  45.1686977  44.6012973  53.8496065  43.6774197  43.0595962
  50.7634653  47.0283913  42.7151548  49.8614566  46.5228390  42.0390998
  51.0935999  48.3105772  42.6466391  51.8833741  48.5894427  43.2701059
  50.4035398  49.2489354  41.7676989  49.4929827  48.9141583  41.5905575
  50.4071481  50.6388686  42.3903012  51.3650781  50.9033023  42.6156671
  49.8168118  51.6741256  41.4588560  49.8625364  51.3495601  40.5098752
  48.8567065  51.8450895  41.6977434  50.3277166  52.5355895  41.5326820
  49.6608685  50.5943476  43.6103593  50.2059895  50.1650712  44.3394949
  51.1857342  49.2389266  40.4466921  52.4008378  49.4320671  40.4480624
  50.5105451  48.9706747  39.3344774  49.4932556  48.8145458  39.4680690
  51.1715732  48.9068843  38.0397814  52.1190001  49.2304694  38.1534298
  51.1799549  47.4704901  37.4977559  50.2360685  47.2141484  37.3071218
  51.9355843  47.4010395  36.1912048  51.2918750  47.2835643  35.4328112
  52.4543301  48.2474182  36.0533212  52.5702930  46.6256462  36.2065736
  51.7716116  46.5181082  38.5247573  51.0800850  46.3037614  39.2140703
  52.0618807  45.6769803  38.0671332  52.5596564  46.9513132  38.9622958
  50.4842061  49.8169693  37.0282237  49.3384390  49.5822254  36.6519780
  51.1903716  50.8535323  36.5892607  52.1509968  50.9235469  36.9944152
  50.6642778  51.8123869  35.6213659  49.6572991  51.7105331  35.5853437
  50.9841332  53.2462734  36.0409858  51.8471272  53.2327306  36.5390881
  51.0742837  53.7932651  35.2145301  49.9522725  53.9275164  36.9313680
  49.0341175  53.7262411  36.5758716  50.0575707  53.4508681  38.3572740
  50.9700326  53.6552960  38.7191461  49.3704152  53.9124284  38.9229888
  49.9041419  52.4605924  38.3990787  50.1952445  55.4181751  36.8637201
  50.0976620  55.7350964  35.9175232  49.5304095  55.8974774  37.4407494
  51.1206431  55.6260339  37.1868254  51.2190958  51.5873433  34.2221671
  52.3072257  51.0308023  34.0470290  50.4722137  52.0685667  33.2365261
  49.5964169  52.5418743  33.5481554  50.8550530  51.9403759  31.8392991
  51.0023964  50.9727216  31.6150937  49.7364132  52.4514022  30.9302935
  49.4466356  53.3275040  31.2769556  50.0996046  52.5190336  30.0168988
  48.5160572  51.5497401  30.8766677  48.7610207  50.7251661  30.3983220
  48.2212047  51.3690422  31.7979859  47.3454129  52.1762152  30.1384605
  47.5650102  52.8402077  29.1062372  46.1949278  52.0002070  30.5908213
  52.1290000  52.7241883  31.5732181  52.5403539  53.5680302  32.3783820
  52.7464184  52.4215434  30.4381522  52.2696270  51.6710574  29.8786296
  53.9754548  53.0674834  30.0004809  54.7518872  52.7338657  30.5596417
  54.2731606  52.6582127  28.5572173  54.3726604  51.6742734  28.5425514
  53.5090734  52.9506544  28.0016791  55.5272823  53.2593889  27.9738274
  55.6873820  52.8545741  27.0940376  55.4142381  54.2339527  27.9239436
  56.7410921  52.9843628  28.8305685  56.9742149  51.7975086  29.1745201
  57.4513083  53.9619744  29.1635831  53.9016088  54.5868774  30.0996763
  53.1039032  55.2236582  29.4062747  54.7401003  55.1601700  30.9585859
  55.3466150  54.4949444  31.4816881  54.7944226  56.6062314  31.1422990
  54.6929590  57.0416647  30.2424146  53.6524269  57.1002833  32.0367824
  53.6677729  58.1153262  32.0492156  52.7702455  56.8198335  31.6193967
  53.6862069  56.6018283  33.4654477  53.6272859  55.5885609  33.4596536
  54.5817668  56.8449983  33.8769824  52.3373433  57.3196098  34.3925462
  52.9291376  59.0286907  34.5522058  53.8328462  59.0980663  34.1370591
  52.2918975  59.6369202  34.0844336  52.9790665  59.2648404  35.5192717
  56.1425734  57.0215258  31.7172616  56.9063709  56.1914168  32.2102875
  56.4258045  58.3144834  31.6489053  55.6880290  58.9027064  31.2190459
  57.6841358  58.8325677  32.1480476  58.3518504  58.0717188  32.1723644
  58.2097798  59.9174725  31.2081025  57.5455755  60.6550835  31.1646890
  59.0778198  60.2515373  31.5576468  58.4072508  59.3961049  29.9036094
  58.2462820  58.4106379  29.9112085  57.5564115  59.3817968  33.5608001
  56.8025952  60.3245354  33.8016107  58.2478137  58.7410186  34.4992581
  58.7686485  57.9041713  34.1561508  58.2700062  59.1785731  35.8904535
  57.6517415  59.9458063  35.9954384  57.8924850  58.0302596  36.8335632
  58.3407557  57.2128096  36.5126863  58.1806408  58.2759699  37.7422978
  56.3911382  57.7442728  36.8842839  56.0636031  57.5720614  35.9583109
  56.1275828  56.5303765  37.7511001  56.4617951  56.6995021  38.6796988
  55.1434723  56.3447619  37.7831893  56.6007791  55.7339683  37.3702402
  55.6389551  58.9448696  37.4327233  55.7978769  59.7389694  36.8436473
  54.6585908  58.7431461  37.4599680  55.9609416  59.1491778  38.3587308
  59.6874633  59.6521378  36.1832296  60.6409921  59.2313391  35.5219911
  59.8458829  60.5914316  37.1283154  58.7892545  61.3453342  37.8281192
  58.0965010  60.7268858  38.1869623  58.3689364  62.0106909  37.2163390
  59.5533506  62.0211772  38.9376914  59.7194142  61.3972711  39.6879401
  59.0853923  62.8358575  39.2486320  60.8396540  62.3798405  38.2521601
  61.5486241  62.5914147  38.9186221  60.7099213  63.1493999  37.6343884
  61.1768701  61.1079652  37.4801053  61.6881375  61.3708834  36.6401656
  62.0108600  60.1429873  38.3311778  61.4886749  59.1674575  38.8824404
  63.3060000  60.4227880  38.4361347  63.6176922  61.2559170  37.9039438
  64.1914728  59.6025950  39.2441745  64.9819944  60.1726366  39.5574447
  63.6997013  59.3174564  40.0952571  64.7201714  58.3682334  38.5418923
  64.6024665  58.2178477  37.3189750  65.3478554  57.4939744  39.3196371
  65.4062137  57.7663137  40.3215062  65.9038471  56.2557640  38.7905925
  66.1126234  56.3824372  37.8232067  67.1384810  55.8247386  39.5790069
  66.8543435  55.6611290  40.5285772  67.4655052  54.9596108  39.1870871
  68.2703337  56.8024087  39.5833079  68.3989425  57.1779604  38.6723816
  68.0890052  57.5305277  40.2354955  69.5458760  56.1111728  39.9931380
  69.8727780  56.5266319  40.8318292  69.3504445  55.1484601  40.1292033
  70.5581923  56.2560415  38.9559920  70.7693667  57.1947870  38.6351925
  71.2292348  55.2546917  38.3948328  71.0489348  53.9990559  38.7883802
  70.3858786  53.7864870  39.5041182  71.5792540  53.2613273  38.3647340
  72.1178190  55.5304545  37.4491151  72.2661436  56.4724256  37.1494934
  72.6465565  54.7887735  37.0278930  64.8613783  55.1719737  38.9339500
  63.8128959  55.3878263  39.5447709  65.1892887  53.9887400  38.4298749
  66.1241814  53.9502621  37.9796826  64.2889369  52.8550860  38.5161851
  63.7225121  52.9739398  39.3345406  63.3840171  52.7595131  37.2831576
  62.7838182  51.9621226  37.3825891  62.8215194  53.5873732  37.2288427
  64.0813822  52.6177685  35.9510749  64.4924909  53.6195413  35.1201422
  64.4234295  54.5987534  35.3268163  65.0136555  53.1042193  33.9616317
  65.3769511  53.6413167  33.1982624  64.9570189  51.7444243  34.0177117
  65.3612613  50.7900098  33.0834376  65.7672289  51.0763527  32.2105091
  65.1805334  49.4717215  33.4067320  65.4598151  48.7561003  32.7654060
  64.6064858  49.0873694  34.6322640  64.4852280  48.1200542  34.8347978
  64.2055312  50.0307029  35.5638172  63.8051863  49.7502004  36.4293108
  64.3790043  51.3952916  35.2593016  65.0980687  51.5952311  38.6920608
  66.2410951  51.5213266  38.2407084  64.5555614  50.6792966  39.4872832
  63.6352828  50.9753102  39.9081883  65.1593082  49.3797445  39.7655606
  66.0825973  49.3756104  39.4396939  65.0299468  49.0315439  41.2543799
  64.2488845  49.5438470  41.6245732  64.8317430  48.0482650  41.3245790
  66.2476046  49.3355289  42.1080588  66.0968869  48.9804727  43.0330254
  67.0491197  48.8876392  41.7093768  66.5162668  50.8312087  42.1965383
  66.4121979  51.2336387  41.2922962  65.8706178  51.2407347  42.8332014
  67.9363357  51.1305949  42.6946239  68.0266629  50.7947577  43.6374221
  68.5942314  50.6383811  42.1151165  68.2744705  52.6010824  42.6693806
  68.7138575  52.8149039  41.8006704  67.4326622  53.1258593  42.7661688
  68.8924250  52.8019674  43.4248589  64.3306554  48.4194584  38.9322285
  63.2502746  48.7759492  38.4694483  64.8277616  47.1889451  38.6990712
  66.1819525  46.6891952  38.9724554  66.3482898  46.6275107  39.9531184
  66.8702602  47.2710873  38.5461596  66.1676917  45.3052889  38.3337535
  65.8749025  44.6200972  38.9981989  67.0740109  45.0742029  37.9873235
  65.1862521  45.4331671  37.2261865  64.8685515  44.5424153  36.9229365
  65.5660749  45.9460135  36.4654124  64.0684556  46.2088599  37.9026313
  63.5250558  46.6831953  37.1820818  63.1561321  45.2842905  38.7312368
  63.4968315  44.8809742  39.8511319  62.0201729  44.9025032  38.1538244
  61.8639310  45.2743429  37.2019669  61.0793482  44.0191121  38.8420411
  61.5837620  43.4841098  39.5306435  59.9921887  44.8495211  39.5410585
  60.1842671  45.8209752  39.3708561  59.1076811  44.6191110  39.1228881
  59.8660510  44.6505256  41.0549663  60.7776647  44.4650338  41.4314970
  59.5123591  45.4962278  41.4621662  58.9395114  43.5018305  41.4156503
  58.0440305  43.6668047  41.0120684  59.3214788  42.6512020  41.0667191
  58.7620055  43.3587231  42.9335360  58.2850464  42.4850905  43.1186011
  59.6797407  43.2996071  43.3592265  57.9994785  44.4733417  43.5759526
  58.3412412  45.3457084  43.2304839  57.0310906  44.3781410  43.3540258
  58.1251081  44.4294102  44.5655997  60.4222231  43.0666707  37.8628093
  60.2230706  43.3982068  36.6943132  60.1374392  41.8655644  38.3439160
  60.4413593  41.7126906  39.3333241  59.4567324  40.8422891  37.5588683
  59.1960701  41.2326811  36.6978304  60.2789511  39.5518531  37.4789169
  60.6600818  39.3540770  38.4001172  59.6535125  38.7848205  37.2467155
  61.4164272  39.5610114  36.4812003  61.7692086  40.5246357  36.3981371
  62.2027753  39.0256818  36.8763611  60.9526825  38.9126135  34.8690012
  61.0523901  37.1378149  35.2101382  61.3894290  37.0028503  36.1398018
  60.1431800  36.7357894  35.1181135  61.6778405  36.7144705  34.5575670
  58.1988378  40.5572082  38.3565049  58.2728617  40.1957773  39.5315705
  57.0440202  40.8057247  37.7664661  57.0998699  41.1981191  36.8173763
  55.8001822  40.5224674  38.4615693  56.0494383  40.0912807  39.3253797
  54.9553449  41.7896416  38.6901421  54.0698565  41.5035340  39.0624721
  55.6248840  42.6824707  39.7345603  55.0312370  43.4581873  39.9354410
  55.7814404  42.1564994  40.5673281  56.4963259  43.0109656  39.3784480
  54.6987333  42.5590533  37.3978019  55.5751116  42.8583495  37.0294802
  54.2674041  41.9389981  36.7464643  53.8100682  43.7546580  37.5965932
  54.2360450  44.3857849  38.2459895  53.6737801  44.2218983  36.7217201
  52.9233353  43.4594398  37.9549073  55.0300216  39.4825276  37.6627620
  55.1276624  39.4325614  36.4322196  54.3445441  38.5971744  38.3749587
  54.4116297  38.7125695  39.4013707  53.5696353  37.5586842  37.7247461
  53.8236862  37.5164257  36.7400033  53.8126699  36.6562502  38.1263765
  52.0767303  37.7712946  37.8455995  51.5642594  38.0327530  38.9308386
  51.3820551  37.6912932  36.7223385  51.9450261  37.5021823  35.8713334
  49.9455041  37.8598185  36.7181570  49.6364403  38.1562913  37.6235919
  49.6871779  38.5499167  36.0403804  49.2983509  36.5409729  36.3699001
  49.8449118  35.4784389  36.6524434  48.1658896  36.6022498  35.6888255
  47.8420341  37.5565521  35.4535070  47.4522345  35.3902657  35.3138270
  47.4673752  34.7884010  36.1252922  46.0013904  35.6965538  34.9309133
  45.7008400  36.4764783  35.4577721  45.8965204  36.0826722  33.4500879
  44.9521291  36.3192407  33.2393998  46.4873108  36.8654968  33.2729176
  46.1835071  35.3106584  32.8893256  45.1312704  34.5011339  35.3141056
  44.1932873  34.6941249  35.0530497  45.4571489  33.7030900  34.8196069
  45.1779087  34.2020531  36.8023158  44.8502716  34.9982238  37.3074634
  44.5953279  33.4162659  36.9981629  46.1185344  33.9980498  37.0669420
  48.1491293  34.6213615  34.1923164  48.1208150  33.3852937  34.1583940
  48.8164029  35.3503759  33.3057473  48.8108302  36.3661853  33.4724361
  49.4943284  34.7078563  32.1898137  49.0902177  33.7730165  32.0495347
  49.2777170  35.2245368  31.3274642  50.9981456  34.5804196  32.3222021
  51.6843958  34.3540091  31.3332405  51.5180566  34.7091229  33.5354164
  50.8445967  34.8791720  34.2923266  52.9504085  34.6073194  33.7174196
  53.1520821  33.9013586  34.4181714  53.3786061  34.2972532  32.8510532
  53.5674540  35.9193247  34.1380072  52.8773388  36.8348239  34.5748004
  54.8704680  36.0320276  33.9245111  55.3020163  35.2074004  33.4465424
  55.6285114  37.2044908  34.3226131  55.0772009  37.6803257  35.0505635
  56.9527247  36.7533734  34.9354118  57.4104710  36.1717142  34.2791338
  57.4882320  37.5615685  35.1331457  56.8032265  35.9735230  36.2180129
  56.3447033  34.6586415  36.2006020  56.1276970  34.2181526  35.3375297
  56.1842107  33.9401410  37.3920751  55.8454420  32.9962015  37.3571462
  56.4929285  34.5394481  38.6118781  56.3827224  34.0319920  39.4600065
  56.9586626  35.8572537  38.6338114  57.1831550  36.3037566  39.5115735
  57.1131591  36.5608252  37.4396610  57.4526286  37.5016567  37.4642049
  55.9039328  38.2451985  33.2430461  55.8812226  37.9524969  32.0489075
  56.1141982  39.4780431  33.6841409  56.0034738  39.5924145  34.7174455
  56.4693348  40.5752264  32.7965167  56.9235607  40.1745672  32.0221853
  55.2906589  41.5092643  32.4241709  55.6568593  42.2358923  31.8281567
  54.2901465  40.7666358  31.5695694  53.5982420  41.4029172  31.2265445
  54.7568668  40.3407525  30.7936154  53.8416299  40.0568659  32.1121342
  54.6175557  42.1774831  33.6239274  54.0855064  41.4896228  34.1163599
  55.3306565  42.5244874  34.2333841  53.6925261  43.3374674  33.2582767
  52.9692656  42.9987555  32.6623115  53.2984596  43.7126949  34.0930983
  54.2222963  44.0375604  32.7867767  57.5296110  41.3610582  33.5617216
  57.7086122  41.1682517  34.7708263  58.2753133  42.1944457  32.8527706
  58.0641089  42.2205559  31.8392836  59.3052920  42.9975523  33.4852931
  59.4928597  42.6327953  34.3932356  60.5869552  43.0007813  32.6429404
  60.3320793  42.8351174  31.6884233  61.0060752  43.9077828  32.7195738
  61.6260145  41.9592953  33.0460128  61.1997508  41.0561731  33.0518955
  62.3773012  41.9729214  32.3885429  62.1927193  42.2409516  34.4426084
  62.3492444  43.2223701  34.5302872  61.5284064  41.9400638  35.1232580
  63.5133343  41.5135559  34.6991385  63.3654217  40.5288458  34.5952120
  64.1868099  41.8173319  34.0225760  64.0421310  41.7866266  36.0735022
  63.4519839  42.4535725  36.5242122  64.0516810  40.9361386  36.5955883
  64.9692254  42.1488325  36.0008953  58.7696784  44.4048050  33.6184735
  58.2004040  44.9454791  32.6707419  58.9148325  44.9874361  34.8000687
  59.3730070  44.4095081  35.5238182  58.4480103  46.3453596  35.0206355
  58.2253135  46.7499113  34.1356784  57.2282804  46.3770047  35.9586075
  56.9872163  47.3285059  36.1085263  56.0417866  45.7160930  35.2833696
  55.5498291  45.1501636  35.9454827  55.4246050  46.4180236  34.9253552
  56.3611454  45.1408046  34.5298584  57.5541594  45.6888175  37.2883189
  56.8304134  45.8927769  37.9456028  57.6112272  44.7033270  37.1386600
  58.4279925  46.0326821  37.6262699  59.5806167  47.1496210  35.6353755
  60.6054238  46.5823911  36.0318115  59.4046799  48.4652291  35.6888132
  58.5016522  48.7983825  35.2880267  60.4009773  49.3603727  36.2637875
  61.2083195  48.8353143  36.5087126  60.7159843  50.5014598  35.2936826
  59.8682403  51.0068945  35.1265302  61.3798225  51.1067595  35.7344095
  61.2808080  50.0698301  33.9610270  62.1568001  49.6146728  34.0990548
  60.6424354  49.4500306  33.5116250  61.5037896  51.2589987  33.0521715
  61.7141151  52.0529504  33.6217265  62.2829356  51.0567271  32.4593624
  60.3381182  51.5575182  32.2255426  59.9402850  50.8119076  31.6842362
  59.7756255  52.7572451  32.1496857  60.2561590  53.7552063  32.8709305
  61.0488818  53.6396559  33.4621264  59.8104955  54.6622338  32.8239173
  58.7197117  52.9594093  31.3728757  58.3610700  52.1960926  30.8249726
  58.2870864  53.8542610  31.3301935  59.7997403  49.9560136  37.5298819
  58.7161623  50.5354498  37.4846110  60.4798150  49.8332777  38.6595802
  61.3649497  49.3422072  38.6072408  59.9028630  50.4048437  39.8527661
  58.8985811  50.5128316  39.6920194  59.9519547  49.4548556  41.0428240
  59.2108679  49.7199817  41.6862178  59.7307085  48.5202155  40.7070264
  61.2323314  49.4007596  41.7892168  61.9145779  48.9165139  41.2493142
  61.5435712  50.3256513  41.9871590  61.0489322  48.6696445  43.0903811
  60.8750099  47.4555390  43.1185389  61.0558098  49.4107296  44.1810426
  60.9226979  48.9913879  45.1075623  61.1964673  50.4178458  44.0989602
  60.4580578  51.7513603  40.2183133  61.6717486  51.9705774  40.2249764
  59.5286807  52.6572374  40.4882557  58.5429508  52.2924576  40.3946541
  59.8263623  54.0171643  40.8743004  60.8068947  54.1490178  40.8627769
  59.0633779  54.9884364  39.9643162  58.1105645  54.6966734  39.9295623
  59.1261329  55.9002519  40.3632691  59.5956373  55.0487217  38.5552400
  59.1621932  54.1486820  37.5821600  58.4614636  53.4731347  37.8088777
  59.6927757  54.1740908  36.2925067  59.3769550  53.5278076  35.6052963
  60.6666298  55.1164360  35.9818433  61.2288443  55.1437441  34.7373763
  61.1989690  56.0770926  34.3792017  61.1065038  56.0261220  36.9278196
  61.8011523  56.7016868  36.6922126  60.5709093  55.9866808  38.2053496
  60.8846915  56.6409932  38.8919456  59.3479147  54.1543275  42.3153515
  58.2483456  53.7013620  42.6513368  60.1872510  54.7196034  43.1741173
  61.0978303  55.0090218  42.7715798  59.8255161  54.9044405  44.5693933
  59.0014176  54.3354536  44.7441492  60.9643301  54.4400007  45.4685147
  61.7916761  54.9078559  45.1788422  60.7344925  54.6844314  46.4026696
  61.1770748  52.9624571  45.3821519  60.1764942  52.2380928  45.2057527
  62.3445506  52.5282769  45.4929352  59.4533337  56.3389712  44.9139102
  59.9397489  57.2794753  44.2970526  58.5830899  56.4784235  45.9075247
  58.2552560  55.5724672  46.3228199  58.1159662  57.7797476  46.3887242
  57.4240224  57.6038768  47.1281215  59.2263811  58.5276501  47.1429533
  60.0931800  58.3591754  46.6830643  59.0174682  59.5021427  47.1318792
  59.3600042  58.0837578  48.5920701  58.4515742  58.0965553  49.0160090
  59.7164201  57.1469091  48.6089574  60.2855467  58.9663136  49.4113891
  60.1517677  60.1949063  49.4313149  61.2058182  58.3338025  50.1347971
  61.8722182  58.8581891  50.6993808  61.2340634  57.3179841  50.1157157
  57.4585283  58.6901389  45.3551178  57.7985976  59.8726562  45.2337109
  56.4830283  58.1434450  44.6424106  56.2875326  57.1465141  44.8637232
  55.7571199  58.8991836  43.6362148  56.2967694  59.7127471  43.4477427
  55.4444701  58.0268958  42.4167620  54.9428368  57.2308061  42.7237053
  54.5649876  58.7842398  41.4202331  54.3386913  58.1828005  40.6574686
  53.7282304  59.0782046  41.8757932  55.0598864  59.5811607  41.0830251
  56.7581835  57.5404678  41.7861799  57.2711773  57.0323674  42.4788655
  56.5310257  56.9121923  41.0401509  57.6442964  58.6470496  41.2339283
  57.8885023  59.2699911  41.9741339  58.4695175  58.2418794  40.8461124
  57.1460419  59.1417631  40.5257334  54.4526148  59.3784219  44.2627331
  53.7725154  58.6168337  44.9566460  54.1338167  60.6521722  44.0788091
  54.8175509  61.2050763  43.5379150  52.8972738  61.1915121  44.6191303
  52.6910733  60.7306998  45.4740732  53.0100126  62.7058736  44.8293880
  53.8117515  62.8761266  45.4098064  53.1601513  63.1302141  43.9328532
  51.8213706  63.4424898  45.4808739  52.1750384  64.2493173  45.9661187
  50.7859011  63.8771026  44.4594731  50.4277503  63.0744150  43.9813532
  50.0350657  64.3497606  44.9225298  51.2078917  64.4961776  43.7962816
  51.1920647  62.5978318  46.5840049  51.8763515  62.4070850  47.2879312
  50.4256778  63.0972125  46.9889062  50.8624182  61.7365096  46.1971894
  51.7988692  60.8762389  43.6210761  51.9331684  61.1550634  42.4266283
  50.7106281  60.3065158  44.1139987  50.7340348  60.1395959  45.1425092
  49.5808253  59.9481969  43.2727827  49.5814707  60.5912201  42.5057223
  49.7075483  58.4876197  42.8130951  50.4645373  58.4390857  42.1495764
  50.1066889  57.6106676  43.9768952  50.2901723  56.6815194  43.6542461
  50.9313721  57.9762169  44.4097097  49.3678919  57.5839797  44.6500941
  48.4518643  57.9538298  42.1341437  47.7170639  57.9130380  42.8034556
  48.1958035  58.5793863  41.4029420  48.6442212  56.5659070  41.5354290
  48.8948917  55.9293918  42.2617469  47.7914580  56.2738849  41.1084700
  49.3698507  56.6037257  40.8528109  48.2803248  60.1825696  44.0339961
  48.0545506  59.6169586  45.0947135  47.4552663  61.0815238  43.5224926
  47.7819154  61.5321797  42.6479033  46.1922372  61.3902028  44.1652980
  46.2687846  61.2570896  45.1581970  45.8447445  62.8610530  43.9374966
  46.6236520  63.3989927  44.2197252  45.6520889  62.9773621  42.9767458
  44.6392914  63.3540457  44.7129462  44.0895790  62.5791833  44.9587765
  44.9553909  63.8541850  45.4961976  43.7680908  64.2909334  43.8949236
  44.0661344  65.5068825  43.8534052  42.7862105  63.8003193  43.2868126
  45.0855673  60.4841406  43.6201347  44.7472863  60.5347912  42.4391654
  44.5604312  59.6255644  44.4839084  44.9731257  59.6706716  45.4438436
  43.4960754  58.6984877  44.1210220  43.3669325  58.7856029  43.1442134
  43.7760051  57.2998432  44.6831730  43.5063432  57.2910806  45.6388961
  42.9972959  56.2602408  43.9057388  43.1661632  55.3538809  44.2921771
  42.0194534  56.4627673  43.9568067  43.2859348  56.2686723  42.9478325
  45.2742193  56.9985872  44.6118349  45.5160904  56.8207821  43.6572053
  45.7719447  57.8133783  44.9152997  45.7135410  55.8209814  45.4568657
  45.2341375  54.9988893  45.1534520  46.6989340  55.6908802  45.3555529
  45.4959061  56.0014155  46.4142698  42.2160672  59.2215919  44.7756418
  42.1113677  59.2646402  46.0026748  41.2616633  59.6618288  43.9656334
  41.4869605  59.6137877  42.9535266  39.9872563  60.1755518  44.4807340
  39.4873803  60.6076253  43.7015277  39.0768545  59.0213906  44.9280129
  39.6496694  58.2284889  45.1038081  38.6121468  59.3027482  45.7617015
  37.8266920  58.5644773  43.7023107  38.2715115  58.3820732  42.8264007
  40.1090722  61.2170088  45.5932560  39.4620649  61.1151935  46.6336939
  40.9359351  62.2285084  45.3621365  41.4189571  62.2011450  44.4471245
  41.1235547  63.2797034  46.3461904  41.5872324  64.0761408  45.9011955
  40.2080935  63.6235371  46.6468997  41.9195958  62.8618416  47.5653902
  41.9447215  63.5956908  48.5546829  42.5271174  61.6751794  47.5112482
  42.3707629  61.1504574  46.6238418  43.3428599  61.1608736  48.6108093
  43.3191622  61.8192495  49.3552652  42.8780898  59.7752879  49.0490868
  42.9626678  59.1396219  48.2724773  43.4752485  59.4493012  49.7916507
  41.4658013  59.7408892  49.5334584  41.1398761  59.8365534  50.8669374
  39.8253192  59.7843144  51.0007034  39.3237527  59.8344552  51.8582499
  39.2890838  59.6519685  49.7972995  38.3105821  59.5871756  49.6010257
  40.2980338  59.6198322  48.8653766  40.1848616  59.5235637  47.8788547
  44.7699504  61.0468389  48.1085935  45.0284658  60.3842500  47.1078704
  45.6939633  61.7239501  48.7726346  45.3592672  62.2748872  49.5696634
  47.0748595  61.6473678  48.3450673  47.1044275  61.6036153  47.3417725
  47.8569465  62.8895855  48.7579077  47.5520152  63.1669607  49.6604778
  48.8233716  62.6628055  48.7679251  47.6468607  64.0534135  47.8023778
  47.9197391  63.7673446  46.8762698  46.6693164  64.2903336  47.7876126
  48.4444533  65.2831356  48.1892868  48.0448136  65.6902050  48.9964854
  49.3856613  65.0270748  48.3413667  48.3996800  66.3086114  47.0582963
  48.7178446  65.8634535  46.2059638  47.4366053  66.5870878  46.9119951
  49.2234161  67.5315739  47.3010879  49.6493365  67.8167377  46.4442061
  48.6348725  68.2615051  47.6435053  49.9295221  67.3231955  47.9756535
  47.7036977  60.4030646  48.9104752  47.2940690  59.9184005  49.9625831
  48.6586729  59.8693930  48.1593781  48.8424210  60.3982402  47.2670568
  49.3926148  58.6665017  48.5217976  49.4945109  58.6309049  49.5054231
  48.6820310  57.4240007  47.9884947  48.1026779  57.6794138  47.2167362
  49.3614435  56.7559972  47.6900068  48.1189189  57.0278399  48.7126696
  50.7688447  58.8041503  47.8901805  50.8980014  59.3148553  46.7775557
  51.8014343  58.4119385  48.6240733  51.5626711  58.0584967  49.5676516
  53.1694065  58.4838188  48.1124951  53.0926693  58.6310885  47.1359532
  54.0077989  59.5322365  48.8673417  54.1031433  59.2312922  49.8067767
  55.3781787  59.6916837  48.2030965  55.9148884  60.3607046  48.7117935
  55.8490037  58.8128269  48.2043787  55.2546016  60.0041027  47.2647740
  53.2684373  60.8776406  48.8731703  53.3060010  61.2585599  47.9487168
  52.3100105  60.7014261  49.1023483  53.8268681  61.8846536  49.8464549
  54.7816372  62.0759375  49.6180091  53.2966756  62.7309959  49.7930257
  53.7739036  61.5170200  50.7742708  53.7792386  57.1093601  48.3047900
  53.9727183  56.6715749  49.4382584  54.0436136  56.4047974  47.2097543
  53.8156859  56.8544039  46.3205902  54.6227293  55.0783060  47.3430607
  55.3177230  55.0949173  48.1008198  53.8925620  54.4291277  47.6653404
  55.2638821  54.5211985  46.0965342  55.5512242  55.2700115  45.1634781
  55.4904133  53.2131122  46.0809466  55.1945672  52.7098154  46.9417842
  56.1066201  52.5523503  44.9379017  56.8443630  53.1490702  44.5804121
  56.7541087  51.2344361  45.3632860  56.0532687  50.6540780  45.8251570
  57.3360942  50.5067484  44.1688228  56.7505328  50.6429489  43.3653023
  58.2544663  50.8588939  43.9660441  57.3992155  49.5243336  44.3630882
  57.7970458  51.5040457  46.3001996  58.6493003  51.7396912  45.8197858
  55.1169363  52.2910385  43.8025814  54.0444348  51.7214434  44.0122740
  55.4968104  52.7077864  42.5997020  56.4381801  53.1642516  42.5787131
  54.6700883  52.5432829  41.4059641  53.8847691  51.9812437  41.6437509
  54.2567484  53.9170348  40.8358089  55.0914254  54.4420575  40.6845530
  53.5702314  53.7688601  39.4928668  54.1374681  54.1780316  38.7769204
  53.4323460  52.7980778  39.2903123  52.6829679  54.2306825  39.5151060
  53.3468073  54.6592191  41.8267236  52.4479058  54.2268508  41.8247824
  53.7497177  54.6060121  42.7371351  53.2692492  55.6120357  41.5426053
  55.4953665  51.7870435  40.3674190  56.6759178  52.0780083  40.1782045
  54.8820290  50.7970336  39.7300662  53.8917592  50.6409195  40.0215659
  55.5453741  49.9955574  38.7043391  56.5199523  50.2136355  38.7049340
  55.3309265  48.4900447  38.9470605  54.3520127  48.2934036  38.7690321
  55.8711668  47.9926666  38.2493646  55.6719042  47.8678994  40.3068467
  55.2118830  48.3810932  41.0183182  55.1839632  46.4386217  40.3048344
  55.6348709  45.9263691  39.5708006  55.3947006  46.0062114  41.1844184
  54.1927627  46.4175035  40.1582824  57.1521336  47.9023649  40.6003601
  57.4756684  48.8513022  40.6079221  57.3317122  47.4876071  41.4949949
  57.6508193  47.3916097  39.8966416  54.9710581  50.3603494  37.3304280
  53.7516892  50.3716677  37.1505880  55.8488802  50.6551712  36.3716362
  56.8445274  50.6165806  36.6671214  55.4297885  51.0055338  35.0103026
  54.4362920  51.1158079  35.0079998  56.0866146  52.3096147  34.5347497
  57.0736907  52.1653696  34.5294531  55.6722087  52.6304332  33.1233542
  55.9118317  51.8697553  32.5146944  54.6812865  52.7803243  33.0833703
  56.1410657  53.4589991  32.8091987  55.7032419  53.4456387  35.4602809
  54.7054454  53.5164221  35.5062895  56.0681024  53.2680800  36.3757773
  56.0827291  54.3033456  35.1105749  55.7785752  49.8587964  34.0546379
  56.9191733  49.3788861  34.0394992  54.7961794  49.4106178  33.2752961
  53.8915815  49.8895659  33.3883992  55.0366999  48.3219316  32.3485878
  55.8489618  48.5373948  31.7778233  55.2560475  47.4779915  32.8689086
  53.8500604  48.0529628  31.4427100  52.8900717  48.8238814  31.4487147
  53.9003320  46.9804586  30.6311083  55.0727975  46.1033126  30.4379155
  55.4084626  45.7678375  31.3136749  55.7997361  46.5890641  29.9584535
  54.5134914  44.9774924  29.5945890  54.0623946  44.3010202  30.1641836
  55.2286510  44.5556760  29.0500684  53.5290313  45.6847118  28.7242236
  52.8836130  45.0434273  28.3185224  53.9892646  46.2036813  28.0110483
  52.8247076  46.6154872  29.7071429  52.5077734  47.4290340  29.1882737
  51.6421277  45.9331542  30.4020735  51.4477662  44.7160729  30.2882898
  50.8323816  46.7337271  31.0700969  51.0966546  47.7491793  31.0269854
  49.6680732  46.2575180  31.8069332  49.7339647  45.2631617  31.9043342
  49.5996927  46.9413953  33.1759803  50.4248240  46.6808319  33.7177201
  49.5336092  48.4562719  33.0162929  49.6097032  48.8953876  33.9138880
  50.2851818  48.7686205  32.4318898  48.6609112  48.7147431  32.5968602
  48.4426232  46.4847620  33.8793295  47.7748660  47.2307635  33.9801069
  48.3986675  46.5790953  31.0186908  48.3539318  47.5753212  30.2946233
  47.3549467  45.7441701  31.1404479  47.2696052  44.4751953  31.8827646
  46.9935738  44.6344294  32.8236031  48.1372562  43.9886181  31.8527441
  46.1968315  43.7345334  31.1129241  45.7895680  43.0261826  31.6657438
  46.5524480  43.3768186  30.2650674  45.2109704  44.8384648  30.8513243
  44.7160073  45.0742801  31.6817716  44.5744363  44.5812085  30.1320687
  46.1077821  45.9908385  30.4029892  46.2616118  45.8970908  29.4050344
  45.4884274  47.3501994  30.7252061  45.0220867  48.0466662  29.8263856
  45.4976433  47.7289549  32.0079428  45.9306081  47.0327205  32.6560084
  44.9485484  49.0073812  32.4635018  45.0338075  49.6622900  31.7256520
  43.5083584  48.8560498  33.0162273  43.1756022  49.7696911  33.2359972
  42.5713734  48.2785871  31.9641504  42.0057498  47.5645389  32.3771287
  41.9834335  49.0040476  31.6066524  43.1087524  47.8868212  31.2173230
  43.5012012  47.9864496  34.2552735  44.1273120  47.2158632  34.1260152
  43.7959466  48.5270067  35.0451134  42.5755150  47.6400331  34.4155941
  45.8233655  49.4737898  33.6181854  46.6959413  48.7296004  34.0772394
  45.6031983  50.6999000  34.0826120  44.8851214  51.2421581  33.5840634
  46.3569530  51.2062625  35.2333469  47.2915259  50.9078977  35.1248441
  46.1737596  52.7168894  35.3805556  45.2037239  52.9242512  35.3191972
  46.5321368  52.9922423  36.2662844  46.9040061  53.4910837  34.2993529
  48.0924975  53.2876888  34.0947294  46.1889840  54.3553209  33.5811111
  46.6163868  54.8837363  32.8577903  45.2111439  54.4652165  33.7822873
  45.7908043  50.4836277  36.4487566  44.5829540  50.4531423  36.6364623
  46.6525997  49.8929380  37.2648983  47.6525886  50.0182284  37.0103369
  46.2095371  49.1307635  38.4243756  45.1951212  49.1823971  38.4250181
  46.7231329  47.6891679  38.3239638  47.7003241  47.7235956  38.1538904
  46.4376835  46.9153432  39.5846108  46.7967291  45.9845388  39.5025155
  46.8723826  47.3645159  40.3662741  45.4502309  46.8709617  39.7416601
  46.0581833  46.9961065  37.1503565  45.0901965  46.8728763  37.3598555
  46.1392076  47.5874802  36.3482310  46.6668906  45.6619736  36.8334485
  46.5846529  45.0565354  37.6267017  46.1914806  45.2504996  36.0545111
  47.6347463  45.7780351  36.6055759  46.6759385  49.7094274  39.7464073
  47.8616491  49.9746321  39.9178711  45.7459758  49.8943531  40.6844446
  44.7770511  49.6574163  40.3845332  46.0693634  50.3905116  42.0245021
  47.0023339  50.7059342  41.9867062  45.0220075  51.3667767  42.5591095
  44.1416553  50.9002986  42.5788348  45.4074668  51.8084835  43.9614416
  44.7055632  52.4184431  44.3246986  45.4898174  51.0084537  44.5530695
  46.2817658  52.2899712  43.9317125  44.8903105  52.5796097  41.6339722
  44.6817524  52.2534592  40.7120240  44.1214206  53.1352587  41.9540759
  46.1281597  53.4549434  41.5752334  46.8987870  52.9131601  41.2433940
  45.9617782  54.2190740  40.9543987  46.3292468  53.8021492  42.4895096
  46.0619015  49.1598077  42.9336573  45.0086729  48.5487857  43.1321084
  47.2299185  48.8055805  43.4721593  48.0238900  49.4255052  43.2362176
  47.3389777  47.6314133  44.3201637  46.6050243  46.9628930  44.0573216
  48.2248721  47.1539119  44.1138883  47.2552025  47.9005061  45.8015174
  47.2323915  49.0501563  46.2428268  47.3147131  46.8366045  46.5882402
  47.4432698  45.9327890  46.0953256  47.2048993  46.9617244  48.0290747
  46.2506128  47.2764950  48.2545913  47.2793186  45.6014610  48.7003921
  48.1594942  45.1867798  48.4632797  47.2373387  45.7423127  49.6905459
  46.1889401  44.6565499  48.3095996  45.3011671  45.0746151  48.4664199
  46.2880152  44.3970749  47.3555243  46.2727113  43.4026877  49.1472971
  46.2124858  43.6626071  50.1101199  45.5015579  42.8130146  48.9087094
  47.5201444  42.6661106  48.9294211  47.6257423  42.1722330  48.0561411
  48.5241635  42.6027058  49.8020788  48.4582925  43.2375542  50.9566967
  47.6459959  43.7622811  51.2087881  49.2337107  43.1957577  51.5974498
  49.6122086  41.9070991  49.5140038  49.6679801  41.4110550  48.6426320
  50.3748212  41.8715301  50.1565549  48.1855000  47.9079298  48.6902598
  47.9165285  48.3915497  49.7875529  49.3155238  48.1875599  48.0502854
  49.4469709  47.7299926  47.1474693  50.2672837  49.1037828  48.6627440
  50.4402712  48.7745733  49.6034552  51.6211622  49.0729714  47.9448389
  52.2816920  49.5703966  48.5037105  51.9045437  48.1193420  47.8561877
  51.5773496  49.6981191  46.5709853  50.9560748  49.1627781  45.6582741
  52.2116380  50.8435463  46.4210227  52.2141729  51.3094060  45.5346496
  52.6985569  51.2557986  47.1963633  49.7131813  50.5282840  48.7897076
  50.0034616  51.2316272  49.7620160  48.8914763  50.9309057  47.8242736
  48.7283942  50.2345157  47.0725243  48.2821253  52.2523159  47.8452852
  48.8390623  52.8547121  48.4318089  48.2847203  52.8835423  46.4538706
  47.9268540  52.2244206  45.8181221  47.7438440  53.7028632  46.4880181
  49.6847990  53.2712767  45.9774255  50.2082914  52.4430176  45.8109341
  49.5608477  54.0656896  44.7035024  49.0206526  54.8942095  44.8685961
  50.4710665  54.3297923  44.3749580  49.1067434  53.5145334  43.9994845
  50.4256048  54.0831786  47.0494269  50.5081101  53.5333808  47.8783583
  51.3341959  54.3212135  46.7111451  49.9099046  54.9155878  47.2459194
  46.8698662  52.2026902  48.4137528  46.3785658  53.1909505  48.9594701
  46.2175324  51.0540325  48.2900916  46.7313469  50.3049828  47.8025672
  44.8780692  50.9138449  48.8202801  44.3011143  51.6419423  48.4428980
  44.2519296  49.5821751  48.4202742  44.8860576  48.8608137  48.6537123
  43.3969517  49.4846349  48.9046240  43.9472798  49.4553177  46.9223351
  44.7886648  49.6048691  46.4140884  43.4160966  48.0802909  46.6530252
  42.5758234  47.9248978  47.1805238  43.2095936  47.9746383  45.6761096
  44.0953324  47.3894702  46.9161879  42.9432303  50.4968555  46.4786633
  43.3071651  51.4146515  46.6515676  42.7596732  50.3947991  45.4986570
  42.0873288  50.3815571  46.9879087  44.9127309  51.0612206  50.3281408
  44.0143628  51.6613246  50.9002509  45.9623906  50.5628863  50.9727496
  46.6641742  50.0948473  50.3812657  46.0753504  50.6914563  52.4243098
  45.2011941  50.4065465  52.8381627  47.1808618  49.8176004  53.0103938
  47.4132714  50.1554922  53.9464221  46.7515334  48.4000850  53.0864278
  45.9212162  48.2455502  52.5327904  47.4749862  47.7869452  52.7419462
  46.5460453  48.1371922  54.0384703  48.3555509  49.9178900  52.1995656
  48.2536611  49.3647653  51.3657398  46.3526723  52.1319295  52.8318665
  45.9093795  52.5710871  53.8955564  47.0761694  52.8674374  51.9900941
  47.3800249  52.3834533  51.1319494  47.3940120  54.2563247  52.2987319
  47.8218633  54.2817621  53.2133860  48.4080203  54.8396994  51.3110183
  48.0574398  54.7178154  50.3786361  48.5078013  55.8229212  51.4933166
  49.8001458  54.2083704  51.3748246  50.0381181  54.0573064  52.3348792
  49.7746589  53.3302194  50.8966707  50.8866211  55.0738581  50.7392513
  50.6780898  56.2611574  50.4871478  52.0462147  54.4863900  50.4827654
  52.8063394  54.9960242  50.0490450  52.1634849  53.5025912  50.7315558
  46.1440536  55.1244044  52.3473782  46.0111051  55.9609239  53.2350965
  45.2079166  54.8971994  51.4263579  45.4227320  54.1413649  50.7566069
  43.9725020  55.6832914  51.3953708  44.2157705  56.6045994  51.7345258
  43.4033039  55.8134584  49.9673218  42.5914073  56.3982941  50.0140676
  44.4163290  56.4916860  49.0684394  44.0167662  56.6429192  48.1649312
  44.6812986  57.3711370  49.4624128  45.2267831  55.9134711  48.9779204
  42.9819938  54.4647418  49.3844107  43.7570644  53.8393841  49.4331992
  42.2371339  54.0999980  49.9389192  42.5088211  54.5441410  47.9362435
  43.2501295  54.8978450  47.3713184  42.2530221  53.6313206  47.6275014
  41.7214474  55.1536670  47.8841408  42.8900167  55.1466369  52.3386759
  41.7959415  55.7023512  52.4137092  43.2100417  54.0758449  53.0580878
  44.1706644  53.7145568  52.8969915  42.2704936  53.4777357  53.9903345
  42.7906059  52.8953056  54.6613540  41.8467008  54.2220704  54.5602595
  41.1651718  52.6439864  53.3717202  40.0088503  52.7357600  53.7849552
  41.5252588  51.7891906  52.4242015  42.5426828  51.7785302  52.2085168
  40.5545700  50.9387104  51.7490005  39.6506284  51.4018783  51.7790520
  40.9441287  50.7867685  50.2827827  41.4776937  51.5897620  50.0219555
  41.5098126  49.9675835  50.1990411  39.5502617  50.6373761  49.1775955
  38.7338616  50.3574232  49.6891912  40.3929448  49.5600979  52.3972674
  41.3782222  48.9183228  52.7742502  39.1437460  49.1207090  52.5298795
  38.4137880  49.7785531  52.1798561  38.8241855  47.8181676  53.1207474
  39.6372447  47.2382733  53.0696161  38.3108967  47.9539447  54.5665064
  38.0256174  47.0335587  54.9027137  39.3860791  48.5177884  55.4720432
  39.6878165  47.8167464  56.1248255  40.1735703  48.8158985  54.9258124
  39.0275909  49.3045080  55.9820781  37.1615716  48.8141771  54.5937670
  37.2523411  49.5384374  53.9024574  37.7076542  47.1559347  52.3182243
  37.0920632  47.7921937  51.4581643  37.4734719  45.8749843  52.5825398
  38.1126737  45.4549835  53.2916564  36.4056413  45.1262988  51.9274216
  35.9893715  45.6978788  51.2404647  36.9328345  43.8002680  51.3684066
  37.5279719  43.3928544  52.0626944  36.1470578  43.2015917  51.2120266
  37.7292482  43.8561944  50.0643516  38.4725261  44.5050934  50.1684579
  38.2860788  42.4792492  49.7848726  37.5359272  41.8206082  49.6966988
  38.8125582  42.4927609  48.9326831  38.8851438  42.1963273  50.5370171
  36.8459692  44.3100100  48.9013023  36.4841860  45.2209026  49.0968261
  37.3902599  44.3373652  48.0635044  36.0896433  43.6662482  48.7888081
  35.3805886  44.8440828  53.0153071  35.7606491  44.5191356  54.1352041
  34.0935586  44.9753777  52.7105489  33.8909445  45.2588062  51.7418669
  33.0525517  44.7227031  53.7198611  33.4826443  44.1783255  54.4527631
  32.4678038  46.0394631  54.2559086  32.0056724  46.5031472  53.5008916
  31.8051077  45.8158673  54.9695785  33.5119106  46.9658329  54.8313119
  34.0410911  47.8319054  54.1366786  33.8408247  46.7700935  56.0971486
  34.5237477  47.3550765  56.5378289  33.4081165  46.0328868  56.6209700
  31.9021241  43.8942401  53.1604627  31.4252840  44.1579171  52.0573784
  31.4386137  42.9147557  53.9291917  31.9350214  42.7949390  54.8324327
  30.3128497  42.0822086  53.5128807  29.6102629  42.7034015  53.1415853
  30.7228469  41.0891795  52.4146255  29.9102708  40.5948567  52.1386415
  31.0939623  41.6132257  51.6598303  31.7590445  40.0839399  52.8386265
  33.1071435  40.4151084  52.8597580  33.3952718  41.3393692  52.6233048
  34.0642541  39.4724841  53.2088418  35.0378174  39.7276423  53.2156041
  33.6772198  38.1747193  53.5473162  34.3723888  37.5035221  53.7975929
  32.3394983  37.8344339  53.5321169  32.0410594  36.8963899  53.7740214
  31.3828412  38.7850225  53.1798137  30.4163923  38.5337430  53.1724670
  29.6798494  41.3593622  54.6950515  30.0129421  41.7484937  55.8347668
  28.8921184  40.4527260  54.7621394  79.9150552  59.7824344  57.6248180
  39.0976006  35.0836003  13.3969574  57.1251966  54.2435135  60.8444617
  45.4801320  73.2580220  38.0120938  65.0055896  70.4621900  54.7923347
  33.4013244  67.8798033  59.6326670  57.8228510  46.4041776  12.6183226
   7.5728572  39.4088824  28.5030320  23.2090541  19.9200531  61.1725591
  43.1211207   2.8342768  62.5632518  65.7116890  75.1435732  61.4313603
  71.7906724  60.8609626  51.8803927  13.6790527  56.1276632  34.9490173
  63.4989767  19.9468056  60.3570787  60.8818615  11.3647136  32.6901457
  45.1818373  50.1507354  73.7837746  23.7579751   7.8671421  57.9799721
  55.9742797  88.3412964  30.1505909  77.6689334  33.2808636  71.2032794
  68.9442590  50.8206714  27.7432264  10.4462528  25.9388974  22.5448740
  52.8475319  29.7675627  34.3611152   4.3361692  52.8060025  36.1441041
  19.8054976   1.8903429  45.3028854   2.7874301  63.8292035  21.6095581
  25.6576109  45.3488995  78.1383247  25.9659784  57.9331089  66.9412124
  16.9380559  41.9257331  26.6977884  79.9144914  35.6942558  31.7949485
  25.5159647  68.7268546  38.3934109  61.4949173  13.2374122  41.0148035
  54.8211309  71.0672140  51.3006413  75.5956061  42.3378960  76.5328195
  67.2409365  26.3970207  31.3035092  45.3236565  80.2165106  62.2884498
  29.3421275  68.8725550  18.8411249  24.0508309  21.1141793  49.2641738
  55.3818702  16.4307746  60.8152839  46.3539206  33.0230426  74.9673952
  60.1396184  34.6554115  13.9052571  25.1508499  61.6779067  66.6931282
  18.1450525  26.2981603  66.8273683  26.5021209   8.3051925  56.8054678
  41.2310294  47.4562967  73.5433583   2.2557469  26.9808991  43.7425634
  20.1397550  48.5659804   1.0743939  64.8901189  35.5290187   6.0633665
  40.5447892  74.6069823  66.8733302  67.6389467  60.1261156  36.1981785
  66.6199370  52.9492142  15.1822919  18.7028068  70.8598440  16.3338345
  12.8284767  32.1469619  29.6626872  11.7597253  59.9049285  72.6986623
  57.2375078  62.2670095  14.1556830  72.1616169  50.8983907  63.4394334
  73.1078039  42.3983167  70.5110981  14.7664122  11.9275158  44.5874799
  23.3594223  64.8478909  43.2165862  27.5272236  60.7226057  61.1663816
  61.1867791  34.4269005  45.7561410  44.1928559  61.4982779   5.6838365
  27.2249840  77.5037405  28.5157598  42.6974564  65.6004008  10.1089871
  41.5945022  73.9884224  52.2483509  61.1005452  72.6821362  20.0861536
   7.1625003  57.7398357  29.1726620  17.5714717  42.0485717   8.8199313
  47.3803103  22.8505231  69.1274003  28.7351931  57.3736370  32.1432178
  23.4519795  19.0008894  51.3515531  22.6241359  25.7580478  63.8893397
  15.0678522  53.3587309  78.2217632  59.3301734  25.3636804  13.4498804
  71.0422597  32.4663003  39.1918822  59.7854599  28.9131628  47.1942859
  28.8758236  42.3114881  79.2738619  31.7241980  50.0818701  10.1089871
  50.0765566  87.7118413  39.4828758  47.3202999  69.4485493  16.0430272
  74.9356948  37.4266691  74.1060290  15.4778611  58.4295192  66.8240192
  61.5502670  37.6542749  77.0928479  64.3361212  42.3313641  79.3145774
  28.3814586  11.1269604  35.4988499  17.7099597  59.1304373  56.5956433
  54.0105874  41.5245128  85.7295264  53.6757242  42.2022050  85.2939487
  54.5232744  41.1350439  85.1412136  54.0371455  41.5669706  85.5782056
  50.6786990  39.0427715  89.3407208  51.0002831  39.5832922  88.7368516
  51.3259086  38.4724486  89.4729497  50.8213045  39.0386890  89.2714243
  52.7288698  31.0443710  89.4241594  53.4268862  31.2231837  89.9163058
  53.0441030  30.5214049  88.8011984  52.8784035  30.9937482  89.4043604
  56.5185970  35.7841336  86.3652155  56.4337265  36.6402303  86.5101724
  57.0070353  35.5085660  87.0334314  56.5774867  35.8698658  86.4854237
  57.4504403  32.4026130  87.8649890  56.9215874  32.6185764  88.5247196
  57.9729423  33.0962269  87.7850859  57.4492856  32.5369267  87.9505489
  49.3404011  36.2989347  86.6657358  48.7561226  36.8039378  87.0723222
  48.9374106  36.0731734  85.9253950  49.1943314  36.3397595  86.6162383
  53.7981225  32.5454999  85.1426279  54.0377229  32.7532983  84.3301622
  54.1197066  31.7412508  85.2515223  53.8818383  32.4569100  85.0386832
  47.4628580  26.8818714  85.6863930  47.2804153  27.0990595  84.8604922
  48.3254193  26.9957727  85.7422544  47.5633169  26.9308612  85.5718417
  47.0090607  30.1592887  84.1986403  46.2948784  29.8731066  84.6108835
  47.4934576  30.4989512  84.8392790  46.9749970  30.1674536  84.3542038
  54.1837925  38.6622841  84.5748211  54.5989073  38.3307864  83.8832707
  53.3529855  38.4291743  84.4468348  54.1225934  38.5794096  84.4539058
  56.8771315  34.9133400  83.7609412  56.7951478  34.9835587  84.6264399
  57.5151035  35.4763144  83.5693153  56.9591152  35.0072371  83.8599362
  53.9811425  34.9353854  86.7718019  54.7952064  35.2268747  86.6600790
  53.9170566  34.2813717  86.1976312  54.0914164  34.8819049  86.6706856
  50.4922148  33.6277661  86.2365220  50.8767301  33.4085368  86.9881765
  50.2433769  34.4540607  86.3666297  50.5124221  33.7175808  86.3666297
  47.8300527  37.5518487  89.5655807  48.5846495  37.9331526  89.7791270
  47.2371140  38.0029631  90.0202503  47.8537241  37.6747315  89.6638685
  50.5765080  35.7531068  90.3377413  50.3807862  36.3605802  89.7437716
  50.7999425  35.0599012  89.8569087  50.5799721  35.7408593  90.1793494
  60.0721879  37.5689951  86.2945048  59.6928687  36.7827089  86.2874338
  59.4088124  38.1176808  86.1516693  59.9180353  37.5334775  86.2725845
  55.4187447  38.1515654  82.1133824  56.1860432  38.2115779  81.7039676
  54.9718756  37.5796096  81.6290143  55.4660875  38.0752230  81.9811534
  53.9540070  34.3630213  89.5988148  54.4955616  33.8600594  90.0626769
  54.2686629  34.3095408  88.7877633  54.0804467  34.2809634  89.5471960
  52.1226520  39.7547565  86.8828176  52.1919340  38.8962103  87.0221176
  52.9014975  39.9719446  86.5547201  52.2479370  39.6600429  86.8545333
  51.4662048  34.4234420  83.5770934  51.7554573  35.1999303  83.8514509
  51.5533847  33.9123152  84.2785434  51.5216304  34.4626339  83.7213432
  54.0019271  26.6463121  87.7659941  54.4563018  26.8173682  88.4907785
  54.4759317  26.0331232  87.3657716  54.1387591  26.5814007  87.8133702
  51.3432291  33.3505656  88.8704948  52.0874336  33.7379932  89.1087898
  51.4892987  32.5063081  89.0345436  51.4742876  33.2836129  88.9298918
  56.2593667  29.8167684  87.8324621  55.7316685  29.8996428  87.1430330
  56.7189375  30.5585555  87.8289266  56.2495517  29.9388346  87.7299316
  48.2526732  28.0870203  82.8565516  47.9039536  28.7389928  83.3197066
  47.7723178  28.0727316  82.1289387  48.1296976  28.1813257  82.8176608
  55.8130749  38.3871247  86.9634278  56.5364948  38.8529360  86.8198851
  55.3731340  38.4544857  86.2131875  55.8546441  38.4655084  86.8319060
  48.6550863  31.5795845  85.6984138  49.2895942  32.1756270  85.6333599
  48.7376474  31.2799302  86.5130008  48.7607414  31.6236753  85.8087224
  50.2329846  27.5109820  85.6729580  50.5545687  27.0312903  85.0188842
  50.4956790  28.3209466  85.4820391  50.3195871  27.5599718  85.5485072
  53.2940957  29.4517944  87.1720243  52.7005796  29.7734940  86.6204811
  53.3316235  28.6059039  86.9641350  53.2115346  29.3742272  87.0603015
  51.2670189  30.0915194  85.2649573  51.6469154  30.1094824  84.4800688
  50.5262785  30.5369183  85.1440421  51.2139027  30.1596969  85.1313142
  52.0654943  36.9292701  86.6558363  51.2566266  36.6059374  86.6091673
  52.5729852  36.2225923  86.5886612  52.0204610  36.7774017  86.6388658
  48.2531738  18.0397890  77.2349764  47.5014638  17.6613428  77.0065809
  48.7017750  18.0716324  76.4868574  48.2081405  17.9883497  77.0907266
  53.7056698  18.4623259  72.6635311  53.3708066  19.1400181  72.2279533
  54.2183568  18.0728571  72.0752183  53.7322279  18.5047838  72.5122103
  53.2460989  20.4137528  78.6046423  53.6300369  20.9824427  78.0651198
  53.1820130  19.6887038  78.1252239  53.2934416  20.3912992  78.4540285
  49.8316494  18.0516282  79.5012537  49.9326857  17.2416636  79.8109664
  49.2358239  17.9573228  78.8712215  49.7589033  17.9181310  79.4538775
  58.4907488  11.9911823  74.9877912  58.3747014  12.7419509  75.4170050
  59.2863375  11.7335776  75.2373999  58.5912077  12.0646670  75.0882004
  49.6717234  22.9693871  80.9027393  50.3154689  23.4107035  81.2923551
  49.9973489  22.1647297  80.8157651  49.8149062  22.9159066  80.9472870
  50.3737814  15.9805846  76.2747254  50.6953655  16.5211053  75.6708562
  51.0209910  15.4102617  76.4069544  50.5163869  15.9765021  76.2054290
  52.4239522   7.9821841  76.3581641  53.1219686   8.1609969  76.8503104
  52.7391854   7.4592180  75.7352030  52.5734859   7.9315613  76.3383651
  52.6127457  14.3692286  76.3461433  53.0521092  13.7609387  76.7916205
  52.4632120  13.9899659  75.5746898  52.6548923  14.2230757  76.2980600
  56.2136794  12.7219467  73.2992202  56.1288089  13.5780434  73.4441771
  56.7021177  12.4463791  73.9674361  56.2725691  12.8076789  73.4194283
  57.1455227   9.3404262  74.7989937  56.6166698   9.5563895  75.4587243
  57.6680247  10.0340400  74.7190906  57.1443680   9.4747398  74.8845536
  49.0354835  13.2367478  73.5997405  48.4512050  13.7417510  74.0063269
  48.6324930  13.0109865  72.8593997  48.8894138  13.2775727  73.5502430
  53.4932049   9.4833130  72.0766326  53.7328053   9.6911114  71.2641669
  53.8147890   8.6790639  72.1855270  53.5769207   9.3947232  71.9726879
  47.4443060  19.4678415  80.5541356  48.1463640  18.9530404  80.6114113
  47.3640544  19.7952567  81.3588231  47.5366821  19.4392642  80.6814148
  46.7041431   7.0971018  71.1326450  45.9899608   6.8109197  71.5448882
  47.1885400   7.4367644  71.7732837  46.6700794   7.1052667  71.2882084
  53.8788749  15.6000972  71.5088258  54.2939897  15.2685996  70.8172753
  53.0480678  15.3669874  71.3808394  53.8176758  15.5172228  71.3879105
  56.3199118  10.0062791  77.4612507  56.4145972  10.7452085  77.9152133
  55.6957961   9.5780267  77.8947072  56.2408148  10.0524112  77.5920655
  56.5722139  11.8511531  70.6949459  56.4902301  11.9213718  71.5604446
  57.2101859  12.4141275  70.5033200  56.6541976  11.9450502  70.7939409
  53.6762249  11.8731985  73.7058066  54.4902888  12.1646878  73.5940837
  53.6121390  11.2191848  73.1316359  53.7864988  11.8197180  73.6046903
  49.5470157  15.3453503  78.8330378  50.1844104  15.1065250  79.3782171
  49.9725229  15.5490662  78.0983538  49.7046324  15.3404513  78.8047535
  50.1872972  10.5655793  73.1705267  50.5718125  10.3463499  73.9221812
  49.9384593  11.3918738  73.3006343  50.2075045  10.6553939  73.3006344
  45.6897386  16.1683788  77.5418607  44.8635504  16.4145525  77.4152886
  45.7509377  16.0895869  78.4080666  45.5771553  16.1928737  77.6507552
  50.4696215  18.7860669  75.2437637  50.7594513  18.3949650  74.5196864
  51.1999696  18.9677373  75.6842913  50.6203099  18.7554482  75.2020444
  48.4102131  20.7628051  78.3097787  48.1902426  20.4725406  79.1024454
  48.1896653  20.1043006  77.7815699  48.3449725  20.6227759  78.3486696
  50.5770086  22.1357441  77.0928479  51.2294144  21.6033883  77.3219506
  49.8795695  21.7826093  77.4796354  50.5700804  22.0046964  77.1840647
  47.5251351  14.4896619  76.4995854  48.2797319  14.8709658  76.7131316
  46.9321964  14.9407762  76.9542550  47.5488065  14.6125446  76.5978732
  58.5710005  14.4561855  76.4359459  59.1368037  15.1155065  76.3518002
  57.9237908  14.8011553  76.9075861  58.5588761  14.6043796  76.4932215
  55.0416583  17.4000639  75.8596538  54.8003259  16.6668500  75.4523603
  55.2217916  17.9487496  75.2062871  55.0324207  17.3723030  75.7026761
  50.2715903  12.6909199  77.2717460  50.0758686  13.2983933  76.6777763
  50.4950249  11.9977143  76.7909134  50.2750544  12.6786724  77.1133541
  59.7672703  14.5068083  73.2285095  59.3879511  13.7205221  73.2214385
  59.1038948  15.0554940  73.0856739  59.6131177  14.4712907  73.2065892
  52.5919611  18.0581602  77.0673921  53.3569502  17.7891245  76.7456586
  52.4897701  17.5731612  77.7843984  52.6901106  17.9471166  77.1253749
  55.1138271  15.0893785  69.0473871  55.8811256  15.1493910  68.6379723
  54.6669580  14.5174227  68.5630189  55.1611699  15.0130361  68.9151581
  58.0132801  16.7513574  73.5636781  58.0952639  17.5580560  73.2398232
  58.4982544  16.7709533  74.2877555  58.0969959  16.8734236  73.6223680
  53.6490894  11.3008345  76.5328195  54.1906440  10.7978726  76.9966815
  53.9637453  11.2473539  75.7217680  53.7755291  11.2187765  76.4812007
  51.8177344  16.6925696  73.8168223  51.8870164  15.8340235  73.9561223
  52.5965799  16.9097577  73.4887247  51.9430194  16.5978560  73.7885380
  56.2084832  19.1163397  78.0304716  55.8164623  18.8130113  77.3127582
  56.3637904  19.9532487  77.8409670  56.1738421  19.1947234  77.8961213
  56.3724506  15.6813386  77.9710747  56.0139161  15.8528029  78.7474779
  55.8863217  16.1426592  77.4138745  56.2483203  15.7752357  78.0036016
  51.1612872  11.3612552  70.5110981  51.4505397  12.1377434  70.7854555
  51.2484671  10.8501283  71.2125480  51.2167128  11.4004470  70.6553479
  56.9775137  18.5198890  81.4634750  56.7794825  19.0089705  80.7690962
  56.3562848  18.7240132  82.0418884  56.8562701  18.6215428  81.4457974
  51.0383115  10.2883787  75.8044995  51.7825160  10.6758063  76.0427945
  51.1843811   9.4441212  75.9685483  51.1693700  10.2214260  75.8638964
  55.9544491   6.7545815  74.7664668  55.4267509   6.8374559  74.0770377
  56.4140199   7.4963686  74.7629313  55.9446341   6.8766477  74.6639363
  47.9477556   5.0248334  69.7905563  47.5990360   5.6768060  70.2537112
  47.4674002   5.0105447  69.0629434  47.8247800   5.1191388  69.7516654
  55.5081573  15.3249378  73.8974325  56.2315772  15.7907491  73.7538898
  55.0682164  15.3922988  73.1471922  55.5497265  15.4033215  73.7659106
  48.3501687   8.5173976  72.6324184  48.9846766   9.1134401  72.5673646
  48.4327298   8.2177433  73.4470055  48.4558238   8.5614884  72.7427271
  49.9280670   4.4487951  72.6069626  50.2496511   3.9691034  71.9528889
  50.1907614   5.2587597  72.4160438  50.0146695   4.4977849  72.4825118
  55.7685423  19.3870083  74.0572386  55.0514733  19.2130946  73.5919623
  56.4192160  19.1522656  73.5247872  55.7587273  19.3265876  73.9101604
  52.4020128  20.4031384  83.0325449  52.1785782  19.6450213  83.4009476
  51.9129971  20.4329405  82.3105889  52.2963577  20.2953608  82.9802190
  51.0498585  20.6231842  80.4862534  50.6358983  19.9605972  80.0966376
  51.7345959  20.7709701  79.9658228  51.0896956  20.5472500  80.3519031
  54.4163879  19.7821927  81.2386151  54.0180162  19.8924198  80.4706971
  53.8015098  19.9903994  81.8212710  54.2662768  19.8295495  81.2117450
  52.9891781   6.3896075  74.1060290  52.3956620   6.7113072  73.5544857
  53.0267059   5.5437170  73.8981396  52.9066170   6.3120403  73.9943062
  62.1505722  14.3573894  74.6229241  62.5339327  15.1065250  74.8527338
  61.3549835  14.6039714  74.3641230  62.0899504  14.5043588  74.6186815
  50.9621013   7.0293326  72.1989620  51.3419978   7.0472955  71.4140735
  50.2213609   7.4747314  72.0780467  50.9089851   7.0975100  72.0653188
  51.7605767  13.8670832  73.5898410  50.9517090  13.5437505  73.5431720
  52.2680676  13.1604054  73.5226659  51.7155434  13.7152148  73.5728705
  54.9677574  16.4810970  80.4579692  55.4388752  17.1951233  80.6269677
  55.3037753  15.8809721  80.9939561  55.0872689  16.4982435  80.5612068
  59.2264322  33.5583198  77.2349764  58.4747221  33.1798736  77.0065809
  59.6750333  33.5901631  76.4868574  59.1813988  33.5068805  77.0907266
  64.6789281  33.9808567  72.6635311  64.3440650  34.6585489  72.2279533
  65.1916152  33.5913879  72.0752183  64.7054863  34.0233146  72.5122103
  64.2193573  35.9322836  78.6046423  64.6032952  36.5009735  78.0651198
  64.1552714  35.2072346  78.1252239  64.2667000  35.9098299  78.4540285
  60.8049078  33.5701590  79.5012537  60.9059441  32.7601944  79.8109664
  60.2090823  33.4758536  78.8712215  60.7321616  33.4366618  79.4538775
  69.4640072  27.5097131  74.9877912  69.3479597  28.2604817  75.4170050
  70.2595958  27.2521084  75.2373999  69.5644661  27.5831978  75.0882004
  60.6449817  38.4879179  80.9027393  61.2887273  38.9292343  81.2923551
  60.9706073  37.6832605  80.8157651  60.7881646  38.4344374  80.9472870
  54.0014122  29.5921877  79.1264870  53.7664306  28.7589529  79.0197139
  54.1399763  29.8726542  78.3126071  53.9869785  29.5105380  78.9907225
  56.3004210  21.7607607  82.0249178  55.6809241  21.1700254  81.8559193
  56.1988073  22.3519042  81.3913501  56.1941885  21.7611690  81.9054168
  61.3470397  31.4991154  76.2747254  61.6686238  32.0396361  75.6708562
  61.9942494  30.9287925  76.4069544  61.4896452  31.4950329  76.2054290
  63.3972105  23.5007149  76.3581641  64.0952270  23.6795276  76.8503104
  63.7124438  22.9777488  75.7352030  63.5467442  23.4500921  76.3383651
  56.0273343  25.3059889  84.2692747  55.9032039  25.8922334  84.9042566
  56.6791627  24.8120085  84.5705022  56.1046992  25.3198693  84.4078676
  63.5860041  29.8877594  76.3461433  64.0253676  29.2794694  76.7916205
  63.4364703  29.5084967  75.5746898  63.6281506  29.7416065  76.2980600
  61.0531684  28.4821606  83.5480258  61.6980686  27.9894049  83.2291207
  61.2933461  28.6246392  84.3746336  61.1842269  28.4299048  83.6229791
  63.5917775  31.3276512  83.1987151  63.8741018  30.5327917  82.9773906
  64.3203935  31.8057099  83.2192212  63.7407339  31.2811109  83.1690166
  67.1869377  28.2404775  73.2992202  67.1020672  29.0965742  73.4441771
  67.6753760  27.9649099  73.9674361  67.2458274  28.3262097  73.4194283
  68.1187810  24.8589569  74.7989937  67.5899282  25.0749203  75.4587243
  68.6412830  25.5525708  74.7190906  68.1176263  24.9932706  74.8845536
  60.0087418  28.7552786  73.5997405  59.4244633  29.2602818  74.0063269
  59.6057513  28.5295173  72.8593997  59.8626722  28.7961035  73.5502430
  55.5631447  34.4707547  80.4021076  55.0799025  35.1958037  80.3780660
  56.3754765  34.7683677  80.5131234  55.6122194  34.6209901  80.4148356
  61.6345601  33.2639728  83.0070891  61.1172542  32.9047143  82.4032199
  62.3319992  32.7401902  83.0176957  61.6611182  33.1337416  82.9201150
  64.4664633  25.0018438  72.0766326  64.7060636  25.2096422  71.2641669
  64.7880474  24.1975947  72.1855270  64.5501790  24.9132539  71.9726879
  59.7754923  16.9311834  75.9225863  60.5300891  17.2990151  75.6842914
  59.5982457  17.3051388  76.6905043  59.8609401  17.0410022  76.0010752
  58.4175644  34.9863723  80.5541356  59.1196223  34.4715712  80.6114113
  58.3373127  35.3137875  81.3588231  58.5099404  34.9577949  80.6814148
  58.1311987  19.3382153  72.6203976  57.9487561  19.5554034  71.7944969
  58.9937600  19.4521166  72.6762591  58.2316577  19.3872051  72.5058463
  57.7426419  31.1770075  80.0626964  58.5815319  31.4093008  80.1100726
  57.7738189  30.3074387  79.9934000  57.8708137  31.0827022  80.0591609
  58.3679122  31.5970950  84.3640270  58.9077347  31.4542081  85.0343642
  57.6849069  31.9967701  84.7324296  58.3471276  31.6350621  84.5174692
  53.7716267  27.8171241  84.5174691  53.5054683  27.0010358  84.6765682
  53.7854832  27.8624397  83.6470207  53.7340990  27.7028146  84.4128173
  57.6774014  22.6156326  71.1326450  56.9632192  22.3294505  71.5448882
  58.1617983  22.9552951  71.7732837  57.6433378  22.6237975  71.2882084
  64.8521332  31.1186280  71.5088258  65.2672481  30.7871303  70.8172753
  64.0213262  30.8855182  71.3808394  64.7909341  31.0357536  71.3879105
  54.1809681  28.6030021  81.7986436  53.9985254  28.5776907  80.9458728
  54.9159350  29.0728958  81.8375344  54.2623745  28.6691383  81.6784354
  67.2931701  25.5248099  77.4612507  67.3878556  26.2637393  77.9152133
  66.6690545  25.0965575  77.8947072  67.2140731  25.5709420  77.5920655
  54.1480591  25.4823521  81.9485502  54.7254094  25.3459972  82.5877748
  53.4494653  25.0259305  82.2031087  54.1301613  25.3945788  82.0807792
  67.5454723  27.3696839  70.6949459  67.4634885  27.4399026  71.5604446
  68.1834443  27.9326583  70.5033200  67.6274560  27.4635810  70.7939409
  60.9047894  27.1357577  80.1623985  60.6467138  26.3029312  80.1355285
  60.9596376  27.3615190  79.3216486  60.8747672  27.0455348  80.0344122
  59.8782606  24.6895339  80.6488880  59.3032197  24.8487508  81.2852841
  59.5018282  24.0530749  80.1857331  59.7385418  24.6193152  80.6743439
  49.6239425  24.3335414  78.6633321  49.7099677  23.9567283  79.4446851
  50.2515222  23.9595860  78.1853279  49.7295976  24.2220896  78.7078798
  64.6494833  27.3917293  73.7058066  65.4635472  27.6832186  73.5940837
  64.5853974  26.7377156  73.1316359  64.7597572  27.3382488  73.6046903
  60.5202741  30.8638811  78.8330378  61.1576688  30.6250558  79.3782171
  60.9457813  31.0675970  78.0983538  60.6778907  30.8589821  78.8047535
  55.2115383  33.1027147  82.7164681  55.2519529  33.3741998  81.8884461
  55.7709907  33.6269055  83.1322469  55.2998729  33.2202902  82.6556570
  61.1605556  26.0841101  73.1705267  61.5450709  25.8648807  73.9221812
  60.9117176  26.9104046  73.3006343  61.1807629  26.1739247  73.3006344
  62.9024213  31.3411233  80.5124164  62.9763221  31.1786405  81.3666014
  63.7193719  31.5301423  80.2684646  63.0340572  31.3447976  80.6022190
  56.6629970  31.6869096  77.5418607  55.8368087  31.9330833  77.4152886
  56.7241961  31.6081177  78.4080666  56.5504137  31.7114045  77.6507552
  58.8805993  17.7538037  78.5014048  58.0128419  17.8260637  78.5671657
  59.1681198  18.5560116  78.6902023  58.7945741  17.8832184  78.5388814
  61.4428799  34.3045976  75.2437637  61.7327097  33.9134958  74.5196864
  62.1732279  34.4862681  75.6842913  61.5935683  34.2739790  75.2020444
  59.3834714  36.2813359  78.3097787  59.1635010  35.9910714  79.1024454
  59.1629236  35.6228314  77.7815699  59.3182308  36.1413067  78.3486696
  58.2951661  28.3686675  80.5753489  58.0064910  27.7424147  81.1099216
  59.1635009  28.3106963  80.6418169  58.3811913  28.2674220  80.6644443
  58.4983935  30.0081926  76.4995854  59.2529903  30.3894965  76.7131316
  57.9054547  30.4593070  76.9542550  58.5220648  30.1310754  76.5978732
  69.5442588  29.9747163  76.4359459  70.1100621  30.6340373  76.3518002
  68.8970492  30.3196861  76.9075861  69.5321345  30.1229104  76.4932215
  59.8182161  31.1790488  81.8735969  59.2962915  31.3190779  82.5587834
  60.2056182  30.4201152  82.0638087  59.7985862  31.0876012  82.0037046
  56.8073345  21.2296297  75.9430924  56.5198141  20.8597567  75.2062871
  57.4943814  21.6991152  75.6814629  56.8662243  21.2443266  75.7946000
  66.0149166  32.9185947  75.8596538  65.7735842  32.1853808  75.4523603
  66.1950499  33.4672804  75.2062871  66.0056790  32.8908338  75.7026761
  61.2448487  28.2094507  77.2717460  61.0491270  28.8169241  76.6777763
  61.4682833  27.5162451  76.7909134  61.2483128  28.1972032  77.1133541
  59.6427017  25.0949245  77.3898329  60.3649669  25.2590403  76.9302135
  59.1635010  25.8158910  77.2837668  59.6790748  25.2247474  77.3063943
  57.2934634  27.5007317  86.4952468  57.8055731  27.7791570  85.8461228
  57.0070976  28.2396611  86.8615281  57.3269497  27.6509671  86.4542346
  54.3801540  22.0077509  76.7916205  54.4817677  22.8103670  77.1197180
  55.1757427  21.8064845  76.4939285  54.5129446  22.0963408  76.7951560
  55.1965272  22.1224687  84.5337326  55.0550764  21.2708628  84.6581834
  55.4805836  22.1653348  83.7099533  55.2173118  22.0024437  84.4304951
  60.3828647  34.8851268  84.9565825  60.5318211  34.3254184  84.3039229
  61.1628649  34.9643270  85.3398343  60.5202740  34.8136833  84.9162774
  70.7405286  30.0253391  73.2285095  70.3612095  29.2390528  73.2214385
  70.0771532  30.5740248  73.0856739  70.5863761  29.9898214  73.2065892
  63.5652194  33.5766910  77.0673921  64.3302085  33.3076553  76.7456586
  63.4630284  33.0916920  77.7843984  63.6633690  33.4656474  77.1253749
  66.0870855  30.6079093  69.0473871  66.8543840  30.6679218  68.6379723
  65.6402164  30.0359535  68.5630189  66.1344282  30.5315669  68.9151581
  68.9865385  32.2698882  73.5636781  69.0685222  33.0765868  73.2398232
  69.4715127  32.2894841  74.2877555  69.0702543  32.3919544  73.6223680
  62.7961888  26.9483717  82.2306859  62.3724137  27.1488217  81.4945877
  62.6206743  26.1012565  82.3431159  62.7072769  26.8532499  82.1380549
  62.2973582  38.4634230  84.6928316  62.7869512  37.7645020  84.5103981
  61.7257814  38.1658100  85.2804374  62.2858112  38.3160454  84.7529357
  58.0844333  27.4435769  77.6634832  58.2408952  27.3782572  78.5190824
  58.4244926  28.2184321  77.4513511  58.1577568  27.5484967  77.7589426
  64.6223478  26.8193652  76.5328195  65.1639023  26.3164034  76.9966815
  64.9370037  26.7658847  75.7217680  64.7487875  26.7373073  76.4812007
  62.7909928  32.2111004  73.8168223  62.8602748  31.3525542  73.9561223
  63.5698383  32.4282885  73.4887247  62.9162778  32.1163868  73.7885380
  67.1817415  34.6348705  78.0304716  66.7897207  34.3315420  77.3127582
  67.3370487  35.4717795  77.8409670  67.1471005  34.7132542  77.8961213
  54.6578595  24.6270719  77.9795599  55.0377560  25.0455264  77.3155866
  54.0833960  25.2084175  78.2864442  54.6289920  24.7748578  77.9272340
  67.3457090  31.1998694  77.9710747  66.9871745  31.3713337  78.7474779
  66.8595801  31.6611900  77.4138745  67.2215787  31.2937665  78.0036016
  62.1345455  26.8797860  70.5110981  62.4237980  27.6562742  70.7854555
  62.2217254  26.3686591  71.2125480  62.1899712  26.9189778  70.6553479
  58.3009396  26.1931124  82.6111093  57.4597403  26.0934998  82.8189987
  58.5099404  26.9626604  82.9625414  58.2074089  26.2923167  82.6938408
  55.7784963  23.8150661  80.4395844  55.3841661  23.8893673  79.6645953
  55.2225080  24.2008607  80.9904206  55.6387776  23.8832436  80.4063504
  61.1692158  21.4313043  76.4253392  61.4451893  20.7131956  76.0130960
  61.7690828  22.0297963  76.2174499  61.2985423  21.4133414  76.3334154
  60.1744412  31.3362244  86.5680788  60.0664767  31.3464306  87.4342846
  60.3840194  32.1617024  86.3785742  60.1894523  31.4603319  86.6684880
  64.6702679  19.1026560  74.6999988  65.1246425  19.2737121  75.4247832
  65.1442724  18.4894671  74.2997763  64.8070999  19.0377446  74.7473749
  58.1918204  28.5874886  84.0302726  57.6006137  29.2284385  84.0005741
  58.9539228  29.0112504  84.0034026  58.2166465  28.7450725  84.0217873
  67.9507720  34.0384198  81.4634750  67.7527409  34.5275012  80.7690962
  67.3295431  34.2425440  82.0418884  67.8295285  34.1400736  81.4457974
  62.0115699  25.8069095  75.8044995  62.7557744  26.1943371  76.0427945
  62.1576395  24.9626520  75.9685483  62.1426284  25.7399568  75.8638964
  66.9277074  22.2731123  74.7664668  66.4000093  22.3559867  74.0770377
  67.3872782  23.0148994  74.7629313  66.9178925  22.3951785  74.6639363
  58.9210139  20.5433642  69.7905563  58.5722944  21.1953368  70.2537112
  58.4406585  20.5290755  69.0629434  58.7980383  20.6376696  69.7516654
  55.4494066  30.2608984  85.1736642  54.9193991  29.5701423  85.2231617
  55.7219160  30.2519169  84.3449351  55.4118789  30.1576116  85.0584058
  66.4814157  30.8434686  73.8974325  67.2048356  31.3092799  73.7538898
  66.0414748  30.9108296  73.1471922  66.5229849  30.9218523  73.7659106
  50.7289908  26.9336748  82.5304991  50.6233358  26.8883592  81.6657075
  49.9790128  27.2790529  82.8119276  50.6025511  26.9777656  82.4442320
  59.2934048  23.1692173  75.3031608  59.4337009  23.6664637  76.0060249
  59.7916581  22.4678467  75.4445821  59.3875129  23.1394152  75.4283187
  59.3234271  24.0359284  72.6324184  59.9579350  24.6319709  72.5673646
  59.4059881  23.7362741  73.4470055  59.4290821  24.0800192  72.7427271
  60.9013253  19.9673259  72.6069626  61.2229094  19.4876342  71.9528889
  61.1640197  20.7772905  72.4160438  60.9879279  20.0163157  72.4825118
  55.8287258  26.2327125  75.9013730  56.3379488  26.8291632  76.2825036
  56.3021531  25.9653098  75.2190150  55.9730634  26.2812940  75.8568253
  66.7418006  34.9055391  74.0572386  66.0247316  34.7316253  73.5919623
  67.3924744  34.6707964  73.5247872  66.7319857  34.8451184  73.9101604
  63.3752711  35.9216692  83.0325449  63.1518366  35.1635521  83.4009476
  62.8862555  35.9514713  82.3105889  63.2696160  35.8138916  82.9802190
  58.1877790  22.8683383  78.7686911  57.4689779  23.2847516  79.0359774
  58.5590152  23.4337622  78.2178549  58.1369722  23.0132665  78.7269718
  62.0231168  36.1417150  80.4862534  61.6091567  35.4791280  80.0966376
  62.7078543  36.2895009  79.9658228  62.0629540  36.0657808  80.3519031
  65.3896462  35.3007235  81.2386151  64.9912746  35.4109505  80.4706971
  64.7747682  35.5089301  81.8212710  65.2395352  35.3480803  81.2117450
  63.9624364  21.9081383  74.1060290  63.3689204  22.2298379  73.5544857
  63.9999642  21.0622478  73.8981396  63.8798754  21.8305711  73.9943062
  59.8926944  20.4037434  78.8316236  60.3684310  20.7654514  78.1966417
  59.3915543  21.0593901  79.1116379  59.8892303  20.5531623  78.7792977
  73.1238305  29.8759202  74.6229241  73.5071911  30.6250558  74.8527338
  72.3282418  30.1225022  74.3641230  73.0632087  30.0228896  74.6186815
  52.8669189  25.0679801  85.0477992  52.3195908  24.3980447  85.1658861
  53.6561567  24.7009649  85.1121460  52.9021372  24.9144788  85.0746693
  61.9353597  22.5478634  72.1989620  62.3152562  22.5658263  71.4140735
  61.1946193  22.9932622  72.0780467  61.8822434  22.6160408  72.0653188
  51.6256158  24.2800609  82.2024015  51.4477919  23.8277218  82.9278931
  51.3375180  25.0826771  82.3862493  51.5569111  24.3323167  82.3367518
  62.7338351  29.3856140  73.5898410  61.9249674  29.0622813  73.5431720
  63.2413260  28.6789362  73.5226659  62.6888018  29.2337456  73.5728705
  53.3628628  26.8128333  79.3145774  52.4974148  26.8014023  79.2028546
  53.4627444  26.6258556  80.1616914  53.2502795  26.7834394  79.4234719
  58.9885638  36.5826232  82.8875880  59.3032197  37.3962620  82.8953662
  59.3979051  36.1976450  83.5558039  59.0953736  36.6454934  82.9879972
  65.9410158  31.9996278  80.4579692  66.4121336  32.7136541  80.6269677
  66.2770336  31.3995028  80.9939561  66.0605273  32.0167743  80.5612068
  61.9272767  18.7740162  74.8817252  62.7488462  18.9438475  74.6398947
  61.4642418  18.9287423  74.1583549  61.9803930  18.8221895  74.7388896
  56.3298658  30.5299340  82.5354488  56.9343515  30.4895174  81.9068309
  56.1225971  31.3770492  82.5658544  56.3887555  30.6487343  82.4470605
  51.5649940  29.5133958  82.4053412  51.4674218  28.7030229  82.7143468
  52.3478810  29.4925751  82.0199680  51.6666077  29.3901048  82.3940274
  75.6521865  49.4993875  72.6635311  75.3173234  50.1770797  72.2279533
  76.1648735  49.1099187  72.0752183  75.6787446  49.5418453  72.5122103
  64.9746706  45.1107184  79.1264870  64.7396890  44.2774837  79.0197139
  65.1132346  45.3911850  78.3126071  64.9602368  45.0290688  78.9907225
  67.2736793  37.2792915  82.0249178  66.6541825  36.6885562  81.8559193
  67.1720657  37.8704350  81.3913501  67.1674469  37.2796998  81.9054168
  74.3704689  39.0192457  76.3581641  75.0684853  39.1980584  76.8503104
  74.6857021  38.4962796  75.7352030  74.5200026  38.9686229  76.3383651
  78.1601961  43.7590083  73.2992202  78.0753256  44.6151050  73.4441771
  78.6486344  43.4834407  73.9674361  78.2190858  43.8447405  73.4194283
  79.0920394  40.3774877  74.7989937  78.5631865  40.5934511  75.4587243
  79.6145414  41.0711016  74.7190906  79.0908847  40.5118014  74.8845536
  70.9820002  44.2738094  73.5997405  70.3977217  44.7788126  74.0063269
  70.5790097  44.0480481  72.8593997  70.8359306  44.3146342  73.5502430
  75.4397216  40.5203746  72.0766326  75.6793220  40.7281730  71.2641669
  75.7613057  39.7161255  72.1855270  75.5234374  40.4317847  71.9726879
  70.7487506  32.4497142  75.9225863  71.5033474  32.8175459  75.6842914
  70.5715041  32.8236696  76.6905043  70.8341985  32.5595330  76.0010752
  69.1044571  34.8567461  72.6203976  68.9220144  35.0739342  71.7944969
  69.9670184  34.9706474  72.6762591  69.2049160  34.9057359  72.5058463
  68.6506598  38.1341634  71.1326450  67.9364775  37.8479813  71.5448882
  69.1350567  38.4738259  71.7732837  68.6165961  38.1423283  71.2882084
  75.8253916  46.6371588  71.5088258  76.2405064  46.3056611  70.8172753
  74.9945846  46.4040490  71.3808394  75.7641925  46.5542844  71.3879105
  78.5187306  42.8882147  70.6949459  78.4367469  42.9584334  71.5604446
  79.1567027  43.4511891  70.5033200  78.6007143  42.9821118  70.7939409
  60.5972008  39.8520722  78.6633321  60.6832260  39.4752590  79.4446851
  61.2247806  39.4781168  78.1853279  60.7028559  39.7406204  78.7078798
  75.6227416  42.9102601  73.7058066  76.4368055  43.2017494  73.5940837
  75.5586558  42.2562464  73.1316359  75.7330155  42.8567796  73.6046903
  72.1338140  41.6026408  73.1705267  72.5183292  41.3834115  73.9221812
  71.8849760  42.4289354  73.3006343  72.1540212  41.6924555  73.3006344
  69.8538577  33.2723345  78.5014048  68.9861002  33.3445945  78.5671657
  70.1413781  34.0745424  78.6902023  69.7678325  33.4017492  78.5388814
  69.4716518  45.5267234  76.4995854  70.2262486  45.9080273  76.7131316
  68.8787131  45.9778378  76.9542550  69.4953232  45.6496062  76.5978732
  67.7805929  36.7481604  75.9430924  67.4930725  36.3782875  75.2062871
  68.4676397  37.2176460  75.6814629  67.8394826  36.7628574  75.7946000
  72.2181071  43.7279815  77.2717460  72.0223853  44.3354549  76.6777763
  72.4415416  43.0347759  76.7909134  72.2215712  43.7157340  77.1133541
  70.6159601  40.6134553  77.3898329  71.3382253  40.7775711  76.9302135
  70.1367593  41.3344217  77.2837668  70.6523331  40.7432782  77.3063943
  65.3534124  37.5262817  76.7916205  65.4550260  38.3288978  77.1197180
  66.1490010  37.3250153  76.4939285  65.4862029  37.6148716  76.7951560
  77.0603438  46.1264401  69.0473871  77.8276424  46.1864526  68.6379723
  76.6134747  45.5544843  68.5630189  77.1076866  46.0500977  68.9151581
  69.0576917  42.9621077  77.6634832  69.2141536  42.8967880  78.5190824
  69.3977510  43.7369629  77.4513511  69.1310152  43.0670275  77.7589426
  73.7642511  47.7296312  73.8168223  73.8335331  46.8710850  73.9561223
  74.5430966  47.9468193  73.4887247  73.8895361  47.6349176  73.7885380
  65.6311178  40.1456027  77.9795599  66.0110143  40.5640572  77.3155866
  65.0566543  40.7269483  78.2864442  65.6022503  40.2933886  77.9272340
  66.7517547  39.3335969  80.4395844  66.3574245  39.4078981  79.6645953
  66.1957664  39.7193915  80.9904206  66.6120359  39.4017744  80.4063504
  72.1424742  36.9498351  76.4253392  72.4184476  36.2317264  76.0130960
  72.7423411  37.5483271  76.2174499  72.2718006  36.9318722  76.3334154
  75.6435262  34.6211868  74.6999988  76.0979009  34.7922429  75.4247832
  76.1175308  34.0079979  74.2997763  75.7803582  34.5562754  74.7473749
  72.9848282  41.3254403  75.8044995  73.7290327  41.7128679  76.0427945
  73.1308978  40.4811828  75.9685483  73.1158867  41.2584876  75.8638964
  77.9009658  37.7916431  74.7664668  77.3732676  37.8745175  74.0770377
  78.3605366  38.5334302  74.7629313  77.8911508  37.9137093  74.6639363
  69.8942723  36.0618950  69.7905563  69.5455527  36.7138675  70.2537112
  69.4139169  36.0476063  69.0629434  69.7712967  36.1562004  69.7516654
  77.4546740  46.3619994  73.8974325  78.1780939  46.8278107  73.7538898
  77.0147331  46.4293604  73.1471922  77.4962433  46.4403831  73.7659106
  61.7022492  42.4522056  82.5304991  61.5965941  42.4068900  81.6657075
  60.9522712  42.7975837  82.8119276  61.5758095  42.4962964  82.4442320
  70.2666632  38.6877481  75.3031608  70.4069593  39.1849945  76.0060249
  70.7649164  37.9863775  75.4445821  70.3607713  38.6579459  75.4283187
  70.2966854  39.5544592  72.6324184  70.9311934  40.1505017  72.5673646
  70.3792465  39.2548049  73.4470055  70.4023405  39.5985500  72.7427271
  71.8745837  35.4858567  72.6069626  72.1961678  35.0061650  71.9528889
  72.1372781  36.2958213  72.4160438  71.9611862  35.5348465  72.4825118
  66.8019842  41.7512432  75.9013730  67.3112071  42.3476940  76.2825036
  67.2754114  41.4838406  75.2190150  66.9463218  41.7998248  75.8568253
  69.1610374  38.3868691  78.7686911  68.4422363  38.8032824  79.0359774
  69.5322736  38.9522930  78.2178549  69.1102305  38.5317972  78.7269718
  70.8659527  35.9222742  78.8316236  71.3416893  36.2839822  78.1966417
  70.3648127  36.5779209  79.1116379  70.8624886  36.0716930  78.7792977
  72.9086180  38.0663941  72.1989620  73.2885145  38.0843571  71.4140735
  72.1678776  38.5117930  72.0780467  72.8555018  38.1345716  72.0653188
  62.5988742  39.7985917  82.2024015  62.4210503  39.3462526  82.9278931
  62.3107764  40.6012079  82.3862493  62.5301695  39.8508475  82.3367518
  73.7070934  44.9041448  73.5898410  72.8982257  44.5808121  73.5431720
  74.2145843  44.1974670  73.5226659  73.6620601  44.7522764  73.5728705
  72.9005351  34.2925470  74.8817252  73.7221045  34.4623783  74.6398947
  72.4375002  34.4472731  74.1583549  72.9536513  34.3407203  74.7388896
  58.9215146  10.4961329  64.1689811  58.1698045  10.1176867  63.9405856
  59.3701157  10.5279763  63.4208621  58.8764812  10.4446936  64.0247313
  64.3740105  10.9186699  59.5975358  64.0391474  11.5963620  59.1619580
  64.8866976  10.5292010  59.0092230  64.4005687  10.9611277  59.4462150
  63.9144397  12.8700967  65.5386470  64.2983776  13.4387866  64.9991245
  63.8503538  12.1450478  65.0592286  63.9617824  12.8476431  65.3880332
  60.4999902  10.5079721  66.4352583  60.6010265   9.6980075  66.7449711
  59.9041647  10.4136668  65.8052262  60.4272440  10.3744749  66.3878822
  60.3400641  15.4257310  67.8367440  60.9838097  15.8670474  68.2263598
  60.6656897  14.6210737  67.7497698  60.4832470  15.3722505  67.8812917
  53.6964946   6.5300008  66.0604917  53.4615130   5.6967660  65.9537186
  53.8350587   6.8104673  65.2466118  53.6820608   6.4483511  65.9247272
  61.0421221   8.4369285  63.2087301  61.3637062   8.9774493  62.6048609
  61.6893318   7.8666057  63.3409591  61.1847276   8.4328460  63.1394337
  63.2810864   6.8255725  63.2801479  63.7204500   6.2172826  63.7256252
  63.1315527   6.4463098  62.5086944  63.3232330   6.6794196  63.2320647
  63.2868599   8.2654643  70.1327197  63.5691842   7.4706049  69.9113953
  64.0154759   8.7435230  70.1532258  63.4358163   8.2189240  70.1030213
  59.7038242   5.6930917  60.5337452  59.1195457   6.1980949  60.9403316
  59.3008337   5.4673304  59.7934044  59.5577546   5.7339166  60.4842477
  55.2582271  11.4085679  67.3361123  54.7749849  12.1336168  67.3120707
  56.0705589  11.7061809  67.4471281  55.3073018  11.5588032  67.3488402
  61.3296425  10.2017859  69.9410938  60.8123366   9.8425274  69.3372246
  62.0270816   9.6780034  69.9517004  61.3562006  10.0715547  69.8541196
  58.1126468  11.9241854  67.4881403  58.8147047  11.4093843  67.5454160
  58.0323951  12.2516006  68.2928278  58.2050228  11.8956081  67.6154195
  57.4377243   8.1148206  66.9967011  58.2766143   8.3471139  67.0440773
  57.4689013   7.2452518  66.9274047  57.5658961   8.0205153  66.9931656
  58.0629946   8.5349082  71.2980317  58.6028171   8.3920213  71.9683689
  57.3799893   8.9345832  71.6664343  58.0422100   8.5728753  71.4514738
  53.4667091   4.7549372  71.4514738  53.2005507   3.9388489  71.6105729
  53.4805656   4.8002528  70.5810254  53.4291814   4.6406277  71.3468220
  64.5472156   8.0564411  58.4428305  64.9623305   7.7249435  57.7512800
  63.7164086   7.8233313  58.3148441  64.4860165   7.9735667  58.3219152
  53.8760505   5.5408152  68.7326482  53.6936078   5.5155038  67.8798775
  54.6110174   6.0107090  68.7715391  53.9574569   5.6069514  68.6124401
  60.2153565   7.8016942  65.7670425  60.8527512   7.5628689  66.3122218
  60.6408636   8.0054101  65.0323585  60.3729731   7.7967952  65.7387582
  54.9066207  10.0405278  69.6504728  54.9470353  10.3120130  68.8224508
  55.4660731  10.5647187  70.0662516  54.9949553  10.1581034  69.5896616
  62.5975037   8.2789365  67.4464211  62.6714045   8.1164536  68.3006061
  63.4144543   8.4679554  67.2024692  62.7291395   8.2826107  67.5362236
  56.3580794   8.6247227  64.4758654  55.5318911   8.8708965  64.3492933
  56.4192785   8.5459308  65.3420712  56.2454961   8.6492176  64.5847599
  61.1379623  11.2424108  62.1777684  61.4277921  10.8513089  61.4536911
  61.8683103  11.4240813  62.6182959  61.2886507  11.2117921  62.1360491
  59.0785538  13.2191490  65.2437834  58.8585834  12.9288845  66.0364501
  58.8580060  12.5606445  64.7155746  59.0133132  13.0791198  65.2826743
  57.9902485   5.3064807  67.5093536  57.7015734   4.6802278  68.0439263
  58.8585833   5.2485094  67.5758216  58.0762737   5.2052351  67.5984490
  61.2453494  14.5920880  64.0268526  61.8977552  14.0597322  64.2559552
  60.5479103  14.2389532  64.4136400  61.2384212  14.4610403  64.1180694
  58.1934759   6.9460058  63.4335901  58.9480727   7.3273097  63.6471363
  57.6005371   7.3971201  63.8882597  58.2171472   7.0688885  63.5318779
  59.5132985   8.1168619  68.8076016  58.9913739   8.2568911  69.4927881
  59.9007006   7.3579283  68.9978133  59.4936686   8.0254143  68.9377093
  65.7099990   9.8564078  62.7936585  65.4686666   9.1231939  62.3863650
  65.8901323  10.4050935  62.1402918  65.7007614   9.8286469  62.6366808
  56.9885458   4.4385448  73.4292515  57.5006555   4.7169702  72.7801275
  56.7021800   5.1774742  73.7955328  57.0220321   4.5887802  73.3882393
  60.0779471  11.8229399  71.8905871  60.2269034  11.2632315  71.2379276
  60.8579473  11.9021401  72.2738390  60.2153564  11.7514964  71.8502821
  62.6032771  11.9944042  73.1690362  62.5276442  11.3252852  73.7241151
  62.5322630  12.6961830  73.6831029  62.5813378  11.9988949  73.3267210
  63.2603018  10.5145041  64.0013968  64.0252909  10.2454684  63.6796633
  63.1581108  10.0295051  64.7184031  63.3584514  10.4034605  64.0593796
  65.7821679   7.5457225  55.9813918  66.5494664   7.6057349  55.5719769
  65.3352988   6.9737666  55.4970236  65.8295106   7.4693800  55.8491628
  68.6816209   9.2077013  60.4976828  68.7636046  10.0143999  60.1738279
  69.1665951   9.2272972  61.2217601  68.7653367   9.3297675  60.5563727
  61.9924406  15.4012362  71.6268363  62.4820336  14.7023151  71.4444028
  61.4208638  15.1036232  72.2144420  61.9808936  15.2538585  71.6869404
  57.7795157   4.3813900  64.5974878  57.9359776   4.3160703  65.4530870
  58.1195750   5.1562453  64.3853558  57.8528392   4.4863098  64.6929473
  62.4860751   9.1489135  60.7508270  62.5553572   8.2903674  60.8901270
  63.2649207   9.3661016  60.4227294  62.6113602   9.0541999  60.7225427
  66.8768239  11.5726836  64.9644763  66.4848031  11.2693552  64.2467629
  67.0321311  12.4095926  64.7749717  66.8421829  11.6510673  64.8301260
  67.0407914   8.1376825  64.9050793  66.6822569   8.3091468  65.6814826
  66.5546625   8.5990031  64.3478792  66.9166611   8.2315796  64.9376063
  59.8695236   8.2740375  73.5020835  59.7615591   8.2842437  74.3682893
  60.0791018   9.0995156  73.3125789  59.8845347   8.3981450  73.6024927
  57.8869028   5.5253018  70.9642773  57.2956961   6.1662516  70.9345788
  58.6490052   5.9490635  70.9374072  57.9117289   5.6828856  70.9557920
  67.6458544  10.9762329  68.3974797  67.4478233  11.4653144  67.7031009
  67.0246255  11.1803571  68.9758931  67.5246109  11.0778867  68.3798021
  55.1444890   7.1987115  72.1076689  54.6144815   6.5079554  72.1571664
  55.4169984   7.1897300  71.2789398  55.1069613   7.0954247  71.9924105
  66.1764981   7.7812817  60.8314372  66.8999180   8.2470930  60.6878945
  65.7365572   7.8486427  60.0811969  66.2180673   7.8596654  60.6999153
  50.4240732   3.8714879  69.4645037  50.3184182   3.8261724  68.5997121
  49.6740952   4.2168660  69.7459322  50.2976335   3.9155787  69.3782367
  66.4368830  11.8433522  60.9912433  65.7198140  11.6694385  60.5259670
  67.0875568  11.6086095  60.4587919  66.4270681  11.7829315  60.8441651
  63.0703535  12.8594823  69.9665496  62.8469190  12.1013652  70.3349523
  62.5813379  12.8892844  69.2445936  62.9646984  12.7517047  69.9142237
  61.7181992  13.0795281  67.4202581  61.3042391  12.4169411  67.0306422
  62.4029367  13.2273140  66.8998275  61.7580364  13.0035939  67.2859078
  65.0847286  12.2385366  68.1726197  64.6863570  12.3487637  67.4047018
  64.4698506  12.4467433  68.7552757  64.9346176  12.2858934  68.1457497
  62.4289175   6.3234271  60.5238457  61.6200497   6.0000945  60.4771766
  62.9364084   5.6167493  60.4566706  62.3838842   6.1715587  60.5068751
  53.0579452   3.7506464  66.2485821  52.1924971   3.7392155  66.1368592
  53.1578268   3.5636687  67.0956961  52.9453619   3.7212525  66.3574766
  58.6836462  13.5204363  69.8215927  58.9983021  14.3340751  69.8293709
  59.0929875  13.1354581  70.4898086  58.7904560  13.5833065  69.9220018
  65.6360982   8.9374409  67.3919739  66.1072160   9.6514672  67.5609724
  65.9721160   8.3373160  67.9279608  65.7556097   8.9545874  67.4952115
  56.0249482   7.4677471  69.4694535  56.6294339   7.4273305  68.8408356
  55.8176795   8.3148623  69.4998591  56.0838379   7.5865474  69.3810652
  51.2600764   6.4512089  69.3393458  51.1625042   5.6408360  69.6483515
  52.0429634   6.4303882  68.9539726  51.3616901   6.3279179  69.3280321
  69.8947729  26.0146637  64.1689811  69.1430629  25.6362175  63.9405856
  70.3433741  26.0465071  63.4208621  69.8497396  25.9632244  64.0247313
  75.3472689  26.4372006  59.5975358  75.0124057  27.1148928  59.1619580
  75.8599559  26.0477318  59.0092230  75.3738270  26.4796585  59.4462150
  74.8876980  28.3886275  65.5386470  75.2716360  28.9573174  64.9991245
  74.8236122  27.6635785  65.0592286  74.9350408  28.3661739  65.3880332
  71.4732485  26.0265029  66.4352583  71.5742848  25.2165383  66.7449711
  70.8774231  25.9321976  65.8052262  71.4005024  25.8930057  66.3878822
  80.1323479  19.9660570  61.9217959  80.0163005  20.7168256  62.3510097
  80.9279366  19.7084523  62.1714046  80.2328069  20.0395417  62.0222050
  71.3133225  30.9442618  67.8367440  71.9570680  31.3855782  68.2263598
  71.6389480  30.1396044  67.7497698  71.4565054  30.8907813  67.8812917
  64.6697530  22.0485316  66.0604917  64.4347714  21.2152968  65.9537186
  64.8083170  22.3289981  65.2466118  64.6553192  21.9668819  65.9247272
  66.9687617  14.2171046  68.9589225  66.3492649  13.6263694  68.7899240
  66.8671481  14.8082481  68.3253548  66.8625293  14.2175129  68.8394214
  72.0153805  23.9554593  63.2087301  72.3369646  24.4959800  62.6048609
  72.6625901  23.3851364  63.3409591  72.1579860  23.9513768  63.1394337
  74.0655513  15.9570588  63.2921688  74.7635677  16.1358716  63.7843151
  74.3807845  15.4340927  62.6692077  74.2150850  15.9064360  63.2723698
  66.6956750  17.7623328  71.2032794  66.5715447  18.3485773  71.8382613
  67.3475035  17.2683524  71.5045069  66.7730399  17.7762132  71.3418723
  74.2543448  22.3441033  63.2801479  74.6937084  21.7358134  63.7256252
  74.1048111  21.9648406  62.5086944  74.2964914  22.1979504  63.2320647
  71.7215091  20.9385045  70.4820305  72.3664094  20.4457488  70.1631253
  71.9616868  21.0809832  71.3086383  71.8525676  20.8862487  70.5569838
  74.2601182  23.7839951  70.1327197  74.5424425  22.9891357  69.9113953
  74.9887343  24.2620538  70.1532258  74.4090746  23.7374548  70.1030213
  77.8552785  20.6968214  60.2332249  77.7704080  21.5529181  60.3781817
  78.3437168  20.4212538  60.9014408  77.9141682  20.7825536  60.3534330
  78.7871218  17.3153009  61.7329984  78.2582689  17.5312642  62.3927290
  79.3096238  18.0089147  61.6530953  78.7859671  17.4496145  61.8185583
  70.6770826  21.2116225  60.5337452  70.0928041  21.7166257  60.9403316
  70.2740921  20.9858612  59.7934044  70.5310129  21.2524474  60.4842477
  66.2314854  26.9270986  67.3361123  65.7482432  27.6521476  67.3120707
  67.0438173  27.2247116  67.4471281  66.2805602  27.0773340  67.3488402
  72.3029008  25.7203167  69.9410938  71.7855950  25.3610582  69.3372246
  73.0003400  25.1965342  69.9517004  72.3294589  25.5900855  69.8541196
  75.1348040  17.4581877  59.0106372  75.3744044  17.6659861  58.1981715
  75.4563881  16.6539386  59.1195317  75.2185198  17.3695979  58.9066925
  70.4438330   9.3875273  62.8565910  71.1984298   9.7553590  62.6182960
  70.2665865   9.7614828  63.6245090  70.5292809   9.4973461  62.9350799
  69.0859052  27.4427162  67.4881403  69.7879631  26.9279151  67.5454160
  69.0056535  27.7701314  68.2928278  69.1782812  27.4141389  67.6154195
  68.7995395  11.7945592  59.5544023  68.6170968  12.0117473  58.7285016
  69.6621008  11.9084605  59.6102638  68.8999984  11.8435490  59.4398510
  68.4109827  23.6333514  66.9967011  69.2498726  23.8656447  67.0440773
  68.4421596  22.7637826  66.9274047  68.5391545  23.5390461  66.9931656
  69.0362530  24.0534390  71.2980317  69.5760755  23.9105521  71.9683689
  68.3532476  24.4531140  71.6664343  69.0154684  24.0914060  71.4514738
  64.4399675  20.2734680  71.4514738  64.1738090  19.4573797  71.6105729
  64.4538239  20.3187836  70.5810254  64.4024397  20.1591585  71.3468220
  68.3457422  15.0719765  58.0666496  67.6315599  14.7857944  58.4788929
  68.8301391  15.4116391  58.7072884  68.3116785  15.0801414  58.2222131
  75.5204740  23.5749719  58.4428305  75.9355888  23.2434743  57.7512800
  74.6896670  23.3418621  58.3148441  75.4592749  23.4920975  58.3219152
  64.8493089  21.0593460  68.7326482  64.6668662  21.0340346  67.8798775
  65.5842758  21.5292398  68.7715391  64.9307153  21.1254822  68.6124401
  77.9615109  17.9811538  64.3952554  78.0561963  18.7200832  64.8492179
  77.3373952  17.5529014  64.8287118  77.8824139  18.0272859  64.5260701
  64.8163999  17.9386960  68.8825549  65.3937502  17.8023411  69.5217794
  64.1178061  17.4822745  69.1371133  64.7985020  17.8509227  69.0147839
  78.2138130  19.8260278  57.6289506  78.1318293  19.8962465  58.4944493
  78.8517851  20.3890022  57.4373247  78.2957967  19.9199249  57.7279455
  71.5731301  19.5921016  67.0964032  71.3150545  18.7592751  67.0695332
  71.6279784  19.8178629  66.2556533  71.5431079  19.5018787  66.9684169
  70.5466013  17.1458779  67.5828927  69.9715605  17.3050947  68.2192888
  70.1701690  16.5094188  67.1197378  70.4068826  17.0756591  67.6083485
  60.2922832  16.7898853  65.5973368  60.3783084  16.4130722  66.3786898
  60.9198630  16.4159299  65.1193326  60.3979383  16.6784335  65.6418845
  75.3178240  19.8480732  60.6398112  76.1318879  20.1395625  60.5280884
  75.2537382  19.1940595  60.0656405  75.4280979  19.7945927  60.5386950
  71.1886149  23.3202250  65.7670425  71.8260095  23.0813997  66.3122218
  71.6141220  23.5239409  65.0323585  71.3462315  23.3153260  65.7387582
  65.8798791  25.5590586  69.6504728  65.9202936  25.8305437  68.8224508
  66.4393315  26.0832494  70.0662516  65.9682137  25.6766341  69.5896616
  71.8288964  18.5404540  60.1045314  72.2134116  18.3212246  60.8561859
  71.5800584  19.3667485  60.2346390  71.8491036  18.6302686  60.2346390
  73.5707620  23.7974673  67.4464211  73.6446629  23.6349844  68.3006061
  74.3877127  23.9864862  67.2024692  73.7023979  23.8011415  67.5362236
  67.3313377  24.1432535  64.4758654  66.5051495  24.3894273  64.3492933
  67.3925368  24.0644616  65.3420712  67.2187544  24.1677484  64.5847599
  69.5489401  10.2101476  65.4354094  68.6811826  10.2824076  65.5011704
  69.8364605  11.0123555  65.6242070  69.4629149  10.3395623  65.4728861
  72.1112206  26.7609416  62.1777684  72.4010505  26.3698397  61.4536911
  72.8415687  26.9426120  62.6182959  72.2619090  26.7303229  62.1360491
  70.0518122  28.7376798  65.2437834  69.8318417  28.4474153  66.0364501
  69.8312644  28.0791753  64.7155746  69.9865716  28.5976506  65.2826743
  68.9635069  20.8250114  67.5093536  68.6748318  20.1987586  68.0439263
  69.8318417  20.7670402  67.5758216  69.0495321  20.7237659  67.5984490
  72.2186077  30.1106188  64.0268526  72.8710135  29.5782630  64.2559552
  71.5211686  29.7574840  64.4136400  72.2116795  29.9795711  64.1180694
  69.1667342  22.4645366  63.4335901  69.9213310  22.8458405  63.6471363
  68.5737955  22.9156509  63.8882597  69.1904056  22.5874193  63.5318779
  80.2125996  22.4310602  63.3699506  80.7784028  23.0903812  63.2858048
  79.5653899  22.7760300  63.8415908  80.2004752  22.5792543  63.4272262
  70.4865569  23.6353927  68.8076016  69.9646322  23.7754219  69.4927881
  70.8739589  22.8764591  68.9978133  70.4669270  23.5439451  68.9377093
  67.4756753  13.6859736  62.8770971  67.1881549  13.3161006  62.1402918
  68.1627221  14.1554591  62.6154676  67.5345650  13.7006705  62.7286046
  76.6832574  25.3749386  62.7936585  76.4419250  24.6417247  62.3863650
  76.8633907  25.9236243  62.1402918  76.6740198  25.3471777  62.6366808
  71.9131895  20.6657946  64.2057507  71.7174677  21.2732680  63.6117810
  72.1366240  19.9725890  63.7249181  71.9166536  20.6535471  64.0473588
  70.3110425  17.5512684  64.3238375  71.0333076  17.7153842  63.8642181
  69.8318417  18.2722349  64.2177715  70.3474155  17.6810913  64.2403989
  67.9618041  19.9570756  73.4292515  68.4739138  20.2355010  72.7801275
  67.6754384  20.6960050  73.7955328  67.9952904  20.1073110  73.3882393
  65.0484948  14.4640948  63.7256252  65.1501084  15.2667110  64.0537227
  65.8440834  14.2628284  63.4279332  65.1812853  14.5526847  63.7291607
  65.8648680  14.5788126  71.4677373  65.7234171  13.7272067  71.5921881
  66.1489243  14.6216787  70.6439579  65.8856526  14.4587876  71.3644997
  71.0512054  27.3414707  71.8905871  71.2001618  26.7817623  71.2379276
  71.8312056  27.4206709  72.2738390  71.1886148  27.2700272  71.8502821
  81.4088694  22.4816830  60.1625142  81.0295502  21.6953968  60.1554431
  80.7454939  23.0303687  60.0196786  81.2547168  22.4461654  60.1405939
  73.5765355  27.5129350  73.1690362  73.5009026  26.8438160  73.7241151
  73.5055214  28.2147138  73.6831029  73.5545962  27.5174257  73.3267210
  74.2335602  26.0330349  64.0013968  74.9985493  25.7639992  63.6796633
  74.1313692  25.5480359  64.7184031  74.3317097  25.9219913  64.0593796
  76.7554262  23.0642532  55.9813918  77.5227248  23.1242657  55.5719769
  76.3085571  22.4922974  55.4970236  76.8027690  22.9879108  55.8491628
  79.6548792  24.7262321  60.4976828  79.7368630  25.5329307  60.1738279
  80.1398535  24.7458280  61.2217601  79.7385950  24.8482983  60.5563727
  73.4645296  19.4047157  69.1646906  73.0407545  19.6051656  68.4285924
  73.2890151  18.5576005  69.2771206  73.3756176  19.3095938  69.0720596
  72.9656989  30.9197670  71.6268363  73.4552920  30.2208459  71.4444028
  72.3941222  30.6221540  72.2144420  72.9541519  30.7723893  71.6869404
  68.7527741  19.8999208  64.5974878  68.9092360  19.8346011  65.4530870
  69.0928334  20.6747761  64.3853558  68.8260976  20.0048406  64.6929473
  75.2906885  19.2757092  63.4668242  75.8322431  18.7727473  63.9306862
  75.6053444  19.2222286  62.6557727  75.4171282  19.1936513  63.4152054
  73.4593335  24.6674443  60.7508270  73.5286155  23.8088982  60.8901270
  74.2381790  24.8846324  60.4227294  73.5846185  24.5727307  60.7225427
  77.8500823  27.0912144  64.9644763  77.4580614  26.7878860  64.2467629
  78.0053895  27.9281234  64.7749717  77.8154412  27.1695981  64.8301260
  65.3262002  17.0834158  64.9135646  65.7060967  17.5018703  64.2495913
  64.7517367  17.6647614  65.2204489  65.2973327  17.2312017  64.8612386
  78.0140497  23.6562133  64.9050793  77.6555152  23.8276776  65.6814826
  77.5279208  24.1175339  64.3478792  77.8899194  23.7501104  64.9376063
  72.8028863  19.3361299  57.4451028  73.0921388  20.1126181  57.7194602
  72.8900662  18.8250030  58.1465527  72.8583119  19.3753217  57.5893526
  68.9692804  18.6494563  69.5451140  68.1280810  18.5498437  69.7530034
  69.1782812  19.4190044  69.8965461  68.8757496  18.7486607  69.6278455
  66.4468371  16.2714100  67.3735891  66.0525068  16.3457112  66.5986000
  65.8908488  16.6572047  67.9244252  66.3071183  16.3395875  67.3403550
  71.8375566  13.8876482  63.3593439  72.1135300  13.1695395  62.9471007
  72.4374235  14.4861402  63.1514545  71.9668830  13.8696853  63.2674201
  70.8427820  23.7925683  73.5020835  70.7348175  23.8027745  74.3682893
  71.0523601  24.6180464  73.3125789  70.8577931  23.9166758  73.6024927
  75.3386086  11.5590000  61.6340034  75.7929833  11.7300560  62.3587879
  75.8126132  10.9458110  61.2337810  75.4754406  11.4940885  61.6813796
  68.8601612  21.0438326  70.9642773  68.2689545  21.6847824  70.9345788
  69.6222635  21.4675943  70.9374072  68.8849872  21.2014164  70.9557920
  78.6191128  26.4947637  68.3974797  78.4210817  26.9838452  67.7031009
  77.9978839  26.6988879  68.9758931  78.4978692  26.5964175  68.3798021
  72.6799106  18.2632534  62.7385042  73.4241151  18.6506810  62.9767991
  72.8259802  17.4189959  62.9025529  72.8109691  18.1963007  62.7979011
  77.5960482  14.7294562  61.7004715  77.0683500  14.8123306  61.0110424
  78.0556190  15.4712433  61.6969359  77.5862332  14.8515224  61.5979410
  69.5893547  12.9997081  56.7245610  69.2406351  13.6516807  57.1877159
  69.1089993  12.9854194  55.9969481  69.4663791  13.0940135  56.6856701
  66.1177474  22.7172423  72.1076689  65.5877398  22.0264862  72.1571664
  66.3902567  22.7082608  71.2789398  66.0802196  22.6139555  71.9924105
  77.1497564  23.2998125  60.8314372  77.8731763  23.7656238  60.6878945
  76.7098155  23.3671735  60.0811969  77.1913256  23.3781962  60.6999153
  61.3973316  19.3900187  69.4645037  61.2916765  19.3447032  68.5997121
  60.6473536  19.7353968  69.7459322  61.2708919  19.4341095  69.3782367
  69.9617456  15.6255612  62.2371654  70.1020417  16.1228076  62.9400296
  70.4599988  14.9241906  62.3785868  70.0558537  15.5957591  62.3623233
  69.9917678  16.4922723  59.5664231  70.6262757  17.0883148  59.5013693
  70.0743289  16.1926180  60.3810101  70.0974229  16.5363631  59.6767318
  71.5696661  12.4236698  59.5409673  71.8912502  11.9439781  58.8868936
  71.8323605  13.2336344  59.3500485  71.6562686  12.4726596  59.4165165
  66.4970666  18.6890564  62.8353777  67.0062895  19.2855071  63.2165083
  66.9704938  18.4216537  62.1530197  66.6414042  18.7376379  62.7908300
  77.4101414  27.3618830  60.9912433  76.6930724  27.1879693  60.5259670
  78.0608152  27.1271403  60.4587919  77.4003264  27.3014623  60.8441651
  74.0436119  28.3780131  69.9665496  73.8201773  27.6198960  70.3349523
  73.5545962  28.4078152  69.2445936  73.9379568  28.2702355  69.9142237
  68.8561198  15.3246822  65.7026958  68.1373187  15.7410955  65.9699821
  69.2273560  15.8901061  65.1518596  68.8053129  15.4696104  65.6609765
  72.6914576  28.5980589  67.4202581  72.2774974  27.9354719  67.0306422
  73.3761950  28.7458448  66.8998275  72.7312948  28.5221247  67.2859078
  76.0579870  27.7570674  68.1726197  75.6596153  27.8672945  67.4047018
  75.4431090  27.9652741  68.7552757  75.9078759  27.8044242  68.1457497
  74.6307772  14.3644822  61.0400337  74.0372611  14.6861819  60.4884904
  74.6683050  13.5185917  60.8321443  74.5482161  14.2869150  60.9283108
  70.5610351  12.8600873  65.7656283  71.0367717  13.2217953  65.1306464
  70.0598951  13.5157340  66.0456426  70.5575710  13.0095062  65.7133024
  63.5352596  17.5243240  71.9818039  62.9879316  16.8543886  72.0998907
  64.3244974  17.1573088  72.0461506  63.5704780  17.3708227  72.0086740
  72.6037004  15.0042073  59.1329667  72.9835969  15.0221702  58.3480782
  71.8629600  15.4496062  59.0120514  72.5505842  15.0723847  58.9993235
  62.2939566  16.7364048  69.1364062  62.1161327  16.2840657  69.8618978
  62.0058588  17.5390210  69.3202540  62.2252519  16.7886606  69.2707565
  73.4021758  21.8419579  60.5238457  72.5933081  21.5186252  60.4771766
  73.9096667  21.1352801  60.4566706  73.3571425  21.6900895  60.5068751
  64.0312036  19.2691772  66.2485821  63.1657555  19.2577463  66.1368592
  64.1310851  19.0821995  67.0956961  63.9186203  19.2397833  66.3574766
  69.6569045  29.0389671  69.8215927  69.9715604  29.8526059  69.8293709
  70.0662459  28.6539889  70.4898086  69.7637143  29.1018373  69.9220018
  76.6093565  24.4559717  67.3919739  77.0804743  25.1699980  67.5609724
  76.9453744  23.8558468  67.9279608  76.7288680  24.4731182  67.4952115
  72.5956175  11.2303601  61.8157299  73.4171869  11.4001914  61.5738993
  72.1325826  11.3850862  61.0923596  72.6487337  11.2785334  61.6728943
  66.9982066  22.9862779  69.4694535  67.6026923  22.9458613  68.8408356
  66.7909378  23.8333931  69.4998591  67.0570963  23.1050782  69.3810652
  62.2333348  21.9697397  69.3393458  62.1357626  21.1593668  69.6483515
  63.0162218  21.9489190  68.9539726  62.3349484  21.8464487  69.3280321
  80.8680313  41.5331945  64.1689811  80.1163212  41.1547483  63.9405856
  81.3166324  41.5650378  63.4208621  80.8229980  41.4817552  64.0247313
  82.4465069  41.5450337  66.4352583  82.5475432  40.7350691  66.7449711
  81.8506814  41.4507283  65.8052262  82.3737608  41.4115365  66.3878822
  75.6430113  37.5670624  66.0604917  75.4080298  36.7338276  65.9537186
  75.7815754  37.8475289  65.2466118  75.6285776  37.4854127  65.9247272
  77.9420201  29.7356354  68.9589225  77.3225232  29.1449001  68.7899240
  77.8404064  30.3267789  68.3253548  77.8357876  29.7360437  68.8394214
  81.6503409  36.7301533  60.5337452  81.0660624  37.2351565  60.9403316
  81.2473504  36.5043920  59.7934044  81.5042713  36.7709782  60.4842477
  77.2047438  42.4456294  67.3361123  76.7215016  43.1706784  67.3120707
  78.0170756  42.7432424  67.4471281  77.2538186  42.5958648  67.3488402
  81.4170914  24.9060581  62.8565910  82.1716882  25.2738898  62.6182960
  81.2398448  25.2800135  63.6245090  81.5025392  25.0158769  62.9350799
  80.0591635  42.9612470  67.4881403  80.7612214  42.4464459  67.5454160
  79.9789118  43.2886622  68.2928278  80.1515396  42.9326696  67.6154195
  79.7727979  27.3130900  59.5544023  79.5903552  27.5302781  58.7285016
  80.6353592  27.4269913  59.6102638  79.8732568  27.3620798  59.4398510
  79.3842411  39.1518822  66.9967011  80.2231310  39.3841755  67.0440773
  79.4154180  38.2823134  66.9274047  79.5124128  39.0575769  66.9931656
  80.0095114  39.5719697  71.2980317  80.5493338  39.4290828  71.9683689
  79.3265060  39.9716448  71.6664343  79.9887267  39.6099368  71.4514738
  75.4132259  35.7919988  71.4514738  75.1470674  34.9759105  71.6105729
  75.4270823  35.8373144  70.5810254  75.3756981  35.6776893  71.3468220
  79.3190006  30.5905073  58.0666496  78.6048183  30.3043252  58.4788929
  79.8033974  30.9301699  58.7072884  79.2849369  30.5986722  58.2222131
  75.8225672  36.5778768  68.7326482  75.6401245  36.5525654  67.8798775
  76.5575341  37.0477706  68.7715391  75.9039736  36.6440130  68.6124401
  75.7896583  33.4572268  68.8825549  76.3670085  33.3208719  69.5217794
  75.0910644  33.0008052  69.1371133  75.7717604  33.3694535  69.0147839
  81.5198597  32.6644086  67.5828927  80.9448188  32.8236255  68.2192888
  81.1434273  32.0279496  67.1197378  81.3801409  32.5941899  67.6083485
  71.2655416  32.3084161  65.5973368  71.3515668  31.9316030  66.3786898
  71.8931213  31.9344607  65.1193326  71.3711967  32.1969643  65.6418845
  76.8531374  41.0775894  69.6504728  76.8935520  41.3490745  68.8224508
  77.4125899  41.6017802  70.0662516  76.9414720  41.1951649  69.5896616
  78.3045961  39.6617843  64.4758654  77.4784078  39.9079580  64.3492933
  78.3657952  39.5829924  65.3420712  78.1920128  39.6862792  64.5847599
  80.5221984  25.7286784  65.4354094  79.6544410  25.8009384  65.5011704
  80.8097189  26.5308863  65.6242070  80.4361733  25.8580931  65.4728861
  81.0250705  44.2562106  65.2437834  80.8051001  43.9659461  66.0364501
  80.8045227  43.5977061  64.7155746  80.9598300  44.1161814  65.2826743
  79.9367653  36.3435422  67.5093536  79.6480901  35.7172894  68.0439263
  80.8051001  36.2855710  67.5758216  80.0227904  36.2422967  67.5984490
  80.1399926  37.9830673  63.4335901  80.8945894  38.3643713  63.6471363
  79.5470539  38.4341817  63.8882597  80.1636639  38.1059501  63.5318779
  81.4598153  39.1539235  68.8076016  80.9378906  39.2939526  69.4927881
  81.8472173  38.3949899  68.9978133  81.4401853  39.0624759  68.9377093
  78.4489337  29.2045044  62.8770971  78.1614132  28.8346314  62.1402918
  79.1359805  29.6739899  62.6154676  78.5078234  29.2192013  62.7286046
  81.2843008  33.0697992  64.3238375  82.0065660  33.2339150  63.8642181
  80.8051001  33.7907657  64.2177715  81.3206739  33.1996221  64.2403989
  78.9350625  35.4756064  73.4292515  79.4471722  35.7540317  72.7801275
  78.6486967  36.2145358  73.7955328  78.9685488  35.6258418  73.3882393
  76.0217531  29.9826256  63.7256252  76.1233668  30.7852417  64.0537227
  76.8173418  29.7813592  63.4279332  76.1545437  30.0712155  63.7291607
  76.8381263  30.0973434  71.4677373  76.6966755  29.2457375  71.5921881
  77.1221827  30.1402095  70.6439579  76.8589109  29.9773184  71.3644997
  79.7260324  35.4184516  64.5974878  79.8824943  35.3531319  65.4530870
  80.0660917  36.1933068  64.3853558  79.7993559  35.5233714  64.6929473
  76.2994586  32.6019466  64.9135646  76.6793551  33.0204011  64.2495913
  75.7249951  33.1832922  65.2204489  76.2705911  32.7497325  64.8612386
  79.9425387  34.1679871  69.5451140  79.1013394  34.0683745  69.7530034
  80.1515395  34.9375351  69.8965461  79.8490080  34.2671914  69.6278455
  77.4200954  31.7899408  67.3735891  77.0257652  31.8642420  66.5986000
  76.8641071  32.1757354  67.9244252  77.2803767  31.8581183  67.3403550
  81.8160403  39.3110991  73.5020835  81.7080758  39.3213053  74.3682893
  82.0256185  40.1365771  73.3125789  81.8310514  39.4352066  73.6024927
  79.8334195  36.5623633  70.9642773  79.2422128  37.2033132  70.9345788
  80.5955219  36.9861251  70.9374072  79.8582456  36.7199472  70.9557920
  80.5626130  28.5182389  56.7245610  80.2138935  29.1702115  57.1877159
  80.0822576  28.5039502  55.9969481  80.4396374  28.6125443  56.6856701
  77.0910057  38.2357731  72.1076689  76.5609982  37.5450170  72.1571664
  77.3635151  38.2267916  71.2789398  77.0534780  38.1324863  71.9924105
  72.3705900  34.9085495  69.4645037  72.2649349  34.8632339  68.5997121
  71.6206120  35.2539276  69.7459322  72.2441503  34.9526403  69.3782367
  80.9350039  31.1440920  62.2371654  81.0753000  31.6413384  62.9400296
  81.4332572  30.4427214  62.3785868  81.0291120  31.1142899  62.3623233
  80.9650262  32.0108031  59.5664231  81.5995341  32.6068456  59.5013693
  81.0475872  31.7111488  60.3810101  81.0706813  32.0548939  59.6767318
  77.4703249  34.2075872  62.8353777  77.9795479  34.8040379  63.2165083
  77.9437522  33.9401845  62.1530197  77.6146625  34.2561687  62.7908300
  79.8293781  30.8432130  65.7026958  79.1105770  31.2596263  65.9699821
  80.2006144  31.4086369  65.1518596  79.7785713  30.9881412  65.6609765
  81.5342935  28.3786181  65.7656283  82.0100301  28.7403261  65.1306464
  81.0331534  29.0342648  66.0456426  81.5308294  28.5280370  65.7133024
  74.5085180  33.0428548  71.9818039  73.9611899  32.3729194  72.0998907
  75.2977558  32.6758396  72.0461506  74.5437363  32.8893535  72.0086740
  73.2672149  32.2549356  69.1364062  73.0893910  31.8025965  69.8618978
  72.9791171  33.0575518  69.3202540  73.1985102  32.3071914  69.2707565
  75.0044619  34.7877080  66.2485821  74.1390139  34.7762770  66.1368592
  75.1043435  34.6007303  67.0956961  74.8918786  34.7583141  66.3574766
  80.6301629  44.5574979  69.8215927  80.9448188  45.3711367  69.8293709
  81.0395042  44.1725197  70.4898086  80.7369727  44.6203681  69.9220018
  77.9714649  38.5048087  69.4694535  78.5759507  38.4643921  68.8408356
  77.7641962  39.3519239  69.4998591  78.0303546  38.6236090  69.3810652
  73.2065931  37.4882705  69.3393458  73.1090210  36.6778976  69.6483515
  73.9894801  37.4674498  68.9539726  73.3082068  37.3649795  69.3280321
  80.5631137  18.4710076  51.1029858  79.8114036  18.0925614  50.8745903
  81.0117148  18.5028510  50.3548668  80.5180803  18.4195683  50.9587360
  82.1415893  18.4828468  53.3692630  82.2426256  17.6728822  53.6789758
  81.5457638  18.3885415  52.7392309  82.0688431  18.3493496  53.3218869
  75.3380937  14.5048755  52.9944964  75.1031122  13.6716407  52.8877233
  75.4766578  14.7853420  52.1806165  75.3236600  14.4232258  52.8587319
  81.3454233  13.6679664  47.4677499  80.7611448  14.1729696  47.8743362
  80.9424328  13.4422051  46.7274091  81.1993537  13.7087913  47.4182524
  76.8998262  19.3834426  54.2701170  76.4165840  20.1084915  54.2460754
  77.7121580  19.6810556  54.3811328  76.9489009  19.5336779  54.2828449
  79.7542459  19.8990601  54.4221450  80.4563038  19.3842591  54.4794207
  79.6739942  20.2264753  55.2268325  79.8466219  19.8704828  54.5494242
  79.0793234  16.0896953  53.9307058  79.9182134  16.3219886  53.9780820
  79.1105004  15.2201265  53.8614093  79.2074952  15.9953900  53.9271703
  79.7045937  16.5097829  58.2320364  80.2444162  16.3668960  58.9023736
  79.0215884  16.9094579  58.6004390  79.6838091  16.5477500  58.3854785
  75.1083083  12.7298119  58.3854785  74.8421498  11.9137236  58.5445775
  75.1221647  12.7751275  57.5150301  75.0707805  12.6155024  58.2808267
  75.5176496  13.5156899  55.6666529  75.3352069  13.4903785  54.8138821
  76.2526165  13.9855837  55.7055438  75.5990560  13.5818261  55.5464448
  75.4847407  10.3950400  55.8165596  76.0620909  10.2586850  56.4557841
  74.7861468   9.9386184  56.0711180  75.4668428  10.3072666  55.9487886
  70.9606240   9.2462292  52.5313414  71.0466492   8.8694161  53.3126944
  71.5882037   8.8722738  52.0533373  71.0662791   9.1347775  52.5758892
  81.8569556  15.7765689  52.7010471  82.4943503  15.5377437  53.2462265
  82.2824628  15.9802848  51.9663632  82.0145722  15.7716699  52.6727629
  76.5482198  18.0154025  56.5844775  76.5886344  18.2868877  55.7564555
  77.1076722  18.5395934  57.0002563  76.6365544  18.1329781  56.5236663
  77.9996785  16.5995974  51.4098701  77.1734902  16.8457712  51.2832980
  78.0608776  16.5208055  52.2760759  77.8870952  16.6240923  51.5187646
  80.7201529  21.1940237  52.1777881  80.5001825  20.9037592  52.9704548
  80.4996051  20.5355192  51.6495793  80.6549123  21.0539945  52.2166789
  79.6318476  13.2813554  54.4433582  79.3431725  12.6551025  54.9779310
  80.5001825  13.2233841  54.5098263  79.7178728  13.1801098  54.5324537
  79.8350750  14.9208805  50.3675947  80.5896718  15.3021844  50.5811410
  79.2421363  15.3719948  50.8222644  79.8587463  15.0437632  50.4658826
  81.1548976  16.0917366  55.7416063  80.6329730  16.2317658  56.4267927
  81.5422997  15.3328030  55.9318180  81.1352677  16.0002890  55.8717139
  78.6301449  12.4134195  60.3632562  79.1422546  12.6918449  59.7141322
  78.3437791  13.1523489  60.7295375  78.6636312  12.5636549  60.3222440
  81.7195462  19.7978146  58.8245918  81.8685026  19.2381062  58.1719323
  82.4995464  19.8770148  59.2078437  81.8569555  19.7263711  58.7842867
  79.4211148  12.3562647  51.5314925  79.5775767  12.2909450  52.3870917
  79.7611741  13.1311200  51.3193605  79.4944383  12.4611845  51.6269519
  81.5111227  16.2489122  60.4360882  81.4031582  16.2591184  61.3022940
  81.7207009  17.0743903  60.2465836  81.5261338  16.3730197  60.5364974
  79.5285019  13.5001765  57.8982820  78.9372952  14.1411263  57.8685835
  80.2906043  13.9239382  57.8714119  79.5533280  13.6577603  57.8897967
  76.7860881  15.1735862  59.0416736  76.2560806  14.4828301  59.0911711
  77.0585975  15.1646047  58.2129445  76.7485604  15.0702994  58.9264152
  72.0656724  11.8463626  56.3985084  71.9600173  11.8010471  55.5337168
  71.3156944  12.1917407  56.6799369  71.9392326  11.8904534  56.3122414
  77.1654073  11.1454003  49.7693824  77.6746303  11.7418510  50.1505130
  77.6388346  10.8779976  49.0870244  77.3097449  11.1939818  49.7248347
  74.6995443  11.7255211  53.1825868  73.8340963  11.7140902  53.0708639
  74.7994259  11.5385434  54.0297007  74.5869610  11.6961272  53.2914813
  80.3252453  21.4953110  56.7555974  80.6399012  22.3089498  56.7633755
  80.7345866  21.1103328  57.4238133  80.4320551  21.5581812  56.8560065
  77.6665473  15.4426218  56.4034582  78.2710331  15.4022052  55.7748403
  77.4592786  16.2897370  56.4338638  77.7254370  15.5614221  56.3150699
  72.9016755  14.4260836  56.2733505  72.8041033  13.6157107  56.5823562
  73.6845625  14.4052629  55.8879773  73.0032892  14.3027926  56.2620368
  22.8855230  37.8782309  81.8399184  23.6528215  37.9382434  81.4305036
  22.4386539  37.3062751  81.3555503  22.9328657  37.8018885  81.7076895
  32.4506240  56.7697091  85.4560625  32.1157609  57.4474013  85.0204847
  32.9633111  56.3802403  84.8677497  32.4771821  56.8121670  85.3047416
  29.1187356  54.2879678  89.0672568  29.4403197  54.8284885  88.4633876
  29.7659452  53.7176449  89.1994858  29.2613411  54.2838853  88.9979603
  31.1689064  46.2895673  89.1506955  31.8669228  46.4683801  89.6428418
  31.4841396  45.7666012  88.5277344  31.3184401  46.2389445  89.1308965
  31.3576999  52.6766118  89.1386746  31.7970635  52.0683219  89.5841519
  31.2081662  52.2973491  88.3672211  31.3998465  52.5304589  89.0905914
  34.9586336  51.0293299  86.0917515  34.8737631  51.8854266  86.2367084
  35.4470719  50.7537623  86.7599675  35.0175233  51.1150621  86.2119597
  35.8904769  47.6478093  87.5915251  35.3616240  47.8637727  88.2512557
  36.4129789  48.3414232  87.5116220  35.8893222  47.7821230  87.6770850
  27.7804377  51.5441310  86.3922719  27.1961592  52.0491342  86.7988582
  27.3774472  51.3183697  85.6519311  27.6343681  51.5849559  86.3427744
  32.2381591  47.7906962  84.8691639  32.4777595  47.9984946  84.0566982
  32.5597432  46.9864471  84.9780584  32.3218749  47.7021064  84.7652192
  25.9028946  42.1270677  85.4129290  25.7204519  42.3442558  84.5870283
  26.7654559  42.2409690  85.4687905  26.0033536  42.1760575  85.2983777
  25.4490973  45.4044850  83.9251763  24.7349150  45.1183029  84.3374196
  25.9334942  45.7441475  84.5658151  25.4150336  45.4126499  84.0807398
  32.6238291  53.9074804  84.3013571  33.0389439  53.5759827  83.6098067
  31.7930221  53.6743706  84.1733708  32.5626300  53.8246060  84.1804419
  35.3171681  50.1585363  83.4874773  35.2351844  50.2287550  84.3529760
  35.9551402  50.7215107  83.2958513  35.3991519  50.2524334  83.5864722
  32.4211791  50.1805817  86.4983379  33.2352430  50.4720710  86.3866151
  32.3570933  49.5265680  85.9241672  32.5314530  50.1271012  86.3972217
  28.9322515  48.8729625  85.9630581  29.3167667  48.6537331  86.7147126
  28.6834135  49.6992570  86.0931657  28.9524587  48.9627771  86.0931657
  29.0165446  50.9983031  90.0642774  28.8208228  51.6057765  89.4703077
  29.2399791  50.3050975  89.5834448  29.0200087  50.9860556  89.9058855
  38.5122245  52.8141915  86.0210409  38.1329054  52.0279052  86.0139698
  37.8488490  53.3628772  85.8782053  38.3580720  52.7786739  85.9991206
  33.8587813  53.3967617  81.8399184  34.6260799  53.4567742  81.4305036
  33.4119122  52.8248059  81.3555503  33.9061241  53.3204193  81.7076895
  32.3940436  49.6082177  89.3253508  32.9355982  49.1052558  89.7892129
  32.7086995  49.5547371  88.5142994  32.5204834  49.5261597  89.2737320
  30.5626886  54.9999528  86.6093536  30.6319706  54.1414067  86.7486537
  31.3415341  55.2171409  86.2812561  30.6879736  54.9052392  86.5810694
  29.9062414  49.6686384  83.3036295  30.1954939  50.4451266  83.5779869
  29.9934213  49.1575115  84.0050794  29.9616670  49.7078302  83.4478793
  32.4419637  41.8915085  87.4925301  32.8963384  42.0625645  88.2173146
  32.9159683  41.2783195  87.0923077  32.5787957  41.8265970  87.5399063
  29.7832657  48.5957619  88.5970308  30.5274702  48.9831895  88.8353258
  29.9293354  47.7515044  88.7610796  29.9143242  48.5288092  88.6564278
  34.6994033  45.0619647  87.5589982  34.1717051  45.1448391  86.8695690
  35.1589741  45.8037518  87.5554626  34.6895883  45.1840309  87.4564677
  26.6927098  43.3322166  82.5830877  26.3439902  43.9841892  83.0462426
  26.2123544  43.3179279  81.8554748  26.5697342  43.4265220  82.5441968
  34.2531115  53.6323210  86.6899639  34.9765314  54.0981323  86.5464212
  33.8131706  53.6996820  85.9397236  34.2946808  53.7107047  86.5584420
  27.0651007  45.9580697  88.0956921  27.2053968  46.4553161  88.7985563
  27.5633540  45.2566991  88.2371135  27.1592088  45.9282676  88.2208500
  27.0951229  46.8247808  85.4249498  27.7296309  47.4208233  85.3598960
  27.1776840  46.5251265  86.2395368  27.2007780  46.8688716  85.5352585
  28.6730212  42.7561783  85.3994940  28.9946053  42.2764866  84.7454202
  28.9357156  43.5661429  85.2085752  28.7596237  42.8051681  85.2750432
  23.6004217  49.0215649  88.6939044  24.1096446  49.6180156  89.0750350
  24.0738489  48.7541622  88.0115464  23.7447593  49.0701464  88.6493567
  31.7341323  44.6969907  86.8985604  31.1406162  45.0186903  86.3470171
  31.7716601  43.8511002  86.6906710  31.6515712  44.6194235  86.7868375
  29.7070555  45.3367158  84.9914934  30.0869520  45.3546787  84.2066049
  28.9663151  45.7821146  84.8705781  29.6539393  45.4048932  84.8578502
  30.5055309  52.1744664  86.3823724  29.6966632  51.8511337  86.3357033
  31.0130218  51.4677886  86.3151972  30.4604976  52.0225980  86.3654018
  37.6659682  58.8507474  82.5830877  37.3172486  59.5027200  83.0462426
  37.1856127  58.8364587  81.8554748  37.5429926  58.9450528  82.5441968
  39.1091280  24.6611484  76.4424963  39.0785284  25.5156121  76.6143232
  39.7072628  24.3606777  77.0011106  39.1928437  24.7427981  76.5499765
  26.6932104  33.2849853  76.9615125  25.9415004  32.9065391  76.7331170
  27.1418116  33.3168287  76.2133935  26.6481771  33.2335460  76.8172627
  32.1457064  33.7075223  72.3900672  31.8108433  34.3852144  71.9544894
  32.6583934  33.3180534  71.8017543  32.1722645  33.7499801  72.2387463
  31.6861355  35.6589491  78.3311783  32.0700735  36.2276390  77.7916559
  31.6220497  34.9339002  77.8517599  31.7334783  35.6364955  78.1805646
  28.2716860  33.2968245  79.2277897  28.3727223  32.4868599  79.5375025
  27.6758606  33.2025192  78.5977576  28.1989399  33.1633273  79.1804136
  36.9307854  27.2363786  74.7143272  36.8147380  27.9871472  75.1435411
  37.7263741  26.9787739  74.9639359  37.0312444  27.3098633  74.8147364
  28.1117600  38.2145834  80.6292753  28.7555055  38.6558998  81.0188912
  28.4373855  37.4099261  80.5423012  28.2549429  38.1611029  80.6738230
  28.8138180  31.2257809  76.0012615  29.1354021  31.7663017  75.3973923
  29.4610276  30.6554581  76.1334905  28.9564235  31.2216984  75.9319650
  30.8639888  23.2273804  76.0847002  31.5620052  23.4061932  76.5768465
  31.1792220  22.7044143  75.4617391  31.0135225  23.1767576  76.0649012
  31.0527823  29.6144249  76.0726793  31.4921459  29.0061350  76.5181566
  30.9032486  29.2351623  75.3012258  31.0949289  29.4682720  76.0245960
  34.6537160  27.9671430  73.0257562  34.5688455  28.8232397  73.1707131
  35.1421543  27.6915755  73.6939721  34.7126057  28.0528752  73.1459644
  35.5855593  24.5856225  74.5255297  35.0567064  24.8015858  75.1852604
  36.1080613  25.2792363  74.4456267  35.5844046  24.7199362  74.6110897
  41.0403646  30.1602529  79.8988342  40.2101349  30.3713173  80.0621758
  40.9912898  29.3339584  79.6230625  40.9110381  30.0692135  79.8825707
  27.4755201  28.4819441  73.3262765  26.8912416  28.9869473  73.7328629
  27.0725296  28.2561828  72.5859357  27.3294504  28.5227690  73.2767791
  31.9332415  24.7285093  71.8031686  32.1728419  24.9363077  70.9907029
  32.2548256  23.9242602  71.9120631  32.0169573  24.6399195  71.6992239
  25.8843427  34.7130378  80.2806717  26.5864006  34.1982368  80.3379473
  25.8040910  35.0404530  81.0853592  25.9767187  34.6844605  80.4079509
  35.2587790  27.0028606  79.2850655  36.0145305  27.4360121  79.3239563
  35.3650114  26.3533376  79.8585291  35.3857960  26.9706090  79.3748680
  38.2967961  30.8301884  80.0353058  37.8603193  30.8338626  80.7912029
  37.9630876  31.5107383  79.6032635  38.1830581  30.9314339  80.0833890
  25.1441797  22.3422981  70.8591810  24.4299974  22.0561160  71.2714242
  25.6285766  22.6819607  71.4998197  25.1101160  22.3504631  71.0147445
  41.4312307  27.5482803  78.9272695  42.0928741  26.9873472  78.8268603
  40.7903719  27.0534834  79.2525386  41.4341175  27.3919212  78.9605035
  32.3189115  30.8452935  71.2353618  32.7340263  30.5137959  70.5438114
  31.4881045  30.6121837  71.1073755  32.2577124  30.7624191  71.1144466
  37.7177138  28.5648186  78.6684684  37.9532727  28.7093385  77.8411534
  37.8666702  29.3290594  79.0616197  37.7742941  28.6987240  78.6048288
  39.5467595  27.4049852  76.5054287  39.8775812  27.9377492  75.8994382
  40.1200683  27.4588740  77.1616238  39.6801274  27.4919421  76.5132069
  34.7599484  25.2514754  77.1877868  34.8546338  25.9904049  77.6417493
  34.1358327  24.8232230  77.6212432  34.6808514  25.2976075  77.3186015
  35.0122505  27.0963494  70.4214820  34.9302668  27.1665681  71.2869807
  35.6502226  27.6593238  70.2298560  35.0942342  27.1902465  70.5204769
  40.6546946  22.6460349  78.0094449  40.3983511  21.8340290  77.8192332
  41.4976260  22.6537916  77.7824636  40.7412972  22.5272346  77.9479266
  32.1162615  27.1183949  73.4323426  32.9303254  27.4098841  73.3206197
  32.0521757  26.4643811  72.8581719  32.2265354  27.0649143  73.3312263
  27.9870524  30.5905466  78.5595738  28.6244470  30.3517214  79.1047532
  28.4125595  30.7942625  77.8248899  28.1446690  30.5856476  78.5312895
  28.6273339  25.8107756  72.8970628  29.0118491  25.5915462  73.6487173
  28.3784959  26.6370701  73.0271704  28.6475411  25.9005902  73.0271704
  30.3691995  31.0677889  80.2389524  30.4431004  30.9053060  81.0931374
  31.1861502  31.2568078  79.9950006  30.5008354  31.0714631  80.3287550
  45.0610318  26.2247394  83.2349640  44.9934818  26.2443353  82.3652227
  45.0465981  27.0677721  83.4605311  45.0489075  26.3521129  83.1402117
  24.1297752  31.4135751  77.2683968  23.3035870  31.6597489  77.1418247
  24.1909743  31.3347832  78.1346026  24.0171919  31.4380700  77.3772912
  28.9096581  34.0312632  74.9702998  29.1994880  33.6401613  74.2462224
  29.6400062  34.2129337  75.4108273  29.0603465  34.0006445  74.9285805
  42.8468936  24.9991780  81.5096235  43.3976857  24.3659849  81.7493327
  42.8313051  25.5307173  82.2011739  42.9254132  24.9840728  81.6475093
  26.8502497  36.0080014  78.0363148  26.6302792  35.7177369  78.8289815
  26.6297019  35.3494969  77.5081060  26.7850091  35.8679722  78.0752056
  29.0170453  37.3809404  76.8193840  29.6694511  36.8485846  77.0484866
  28.3196061  37.0278056  77.2061714  29.0101170  37.2498927  76.9106008
  25.9651717  29.7348582  76.2261214  26.7197685  30.1161621  76.4396677
  25.3722330  30.1859725  76.6807911  25.9888431  29.8577409  76.3244093
  37.0110371  29.7013818  76.1624819  37.5768403  30.3607028  76.0783362
  36.3638274  30.0463516  76.6341221  36.9989127  29.8495759  76.2197576
  33.4816949  32.6452602  75.5861898  33.2403625  31.9120463  75.1788963
  33.6618282  33.1939459  74.9328232  33.4724573  32.6174993  75.4292121
  28.7116270  27.9361162  76.9982821  28.5159052  28.5435897  76.4043124
  28.9350615  27.2429106  76.5174495  28.7150911  27.9238688  76.8398901
  38.9445831  26.3647686  79.7821616  38.8579806  26.5203112  80.6356395
  38.4896311  27.0085761  79.4081021  38.8649088  26.4823441  79.8528722
  36.7119696  30.3941792  82.1933956  36.5734055  31.0922838  82.6982699
  35.9319694  30.2390448  81.8370138  36.5762923  30.4741959  82.2160231
  38.2073069  29.7520046  72.9550456  37.8279877  28.9657184  72.9479745
  37.5439314  30.3006903  72.8122100  38.0531544  29.7164870  72.9331253
  31.0319977  33.3033565  76.7939282  31.7969868  33.0343209  76.4721946
  30.9298067  32.8183575  77.5109345  31.1301472  33.1923129  76.8519110
  33.5538637  30.3345749  68.7739231  34.3211623  30.3945873  68.3645083
  33.1069946  29.7626190  68.2895550  33.6012065  30.2582324  68.6416942
  36.4533168  31.9965537  73.2902142  36.5353005  32.8032523  72.9663592
  36.9382910  32.0161496  74.0142915  36.5370325  32.1186199  73.3489040
  32.0891260  26.5460308  76.2593555  32.6306806  26.0430689  76.7232176
  32.4037819  26.4925502  75.4483040  32.2155657  26.4639729  76.2077367
  30.2577710  31.9377659  73.5433583  30.3270530  31.0792198  73.6826584
  31.0366165  32.1549540  73.2152608  30.3830560  31.8430523  73.5150741
  34.6485198  34.3615361  77.7570077  34.2564989  34.0582076  77.0392943
  34.8038270  35.1984450  77.5675030  34.6138788  34.4399197  77.6226574
  34.8124872  30.9265349  77.6976107  34.4539527  31.0979992  78.4740140
  34.3263583  31.3878555  77.1404106  34.6883569  31.0204320  77.7301376
  29.6013238  26.6064515  70.2376341  29.8905763  27.3829397  70.5119916
  29.6885037  26.0953246  70.9390841  29.6567494  26.6456433  70.3818839
  32.1370461  18.8293216  74.4265348  32.5914208  19.0003776  75.1513193
  32.6110507  18.2161326  74.0263124  32.2738781  18.7644101  74.4739110
  35.4175503  33.7650853  81.1900111  35.2195192  34.2541668  80.4956322
  34.7963214  33.9692095  81.7684244  35.2963067  33.8667391  81.1723334
  29.4783481  25.5335750  75.5310355  30.2225526  25.9210026  75.7693305
  29.6244177  24.6893175  75.6950843  29.6094066  25.4666223  75.5904325
  34.3944857  21.9997778  74.4930028  33.8667875  22.0826522  73.8035737
  34.8540565  22.7415649  74.4894673  34.3846707  22.1218440  74.3904724
  26.3877922  20.2700298  69.5170924  26.0390726  20.9220023  69.9802473
  25.9074368  20.2557411  68.7894795  26.2648166  20.3643351  69.4782015
  33.9481939  30.5701341  73.6239685  34.6716138  31.0359454  73.4804259
  33.5082530  30.6374951  72.8737282  33.9897632  30.6485178  73.4924467
  26.7902053  23.7625939  72.3589545  27.4247133  24.3586364  72.2939007
  26.8727664  23.4629397  73.1735415  26.8958604  23.8066847  72.4692631
  28.3681036  19.6939914  72.3334987  28.6896877  19.2142997  71.6794249
  28.6307980  20.5039560  72.1425799  28.4547061  19.7429812  72.2090479
  34.2085789  34.6322046  73.7837746  33.4915099  34.4582909  73.3184984
  34.8592527  34.3974619  73.2513232  34.1987639  34.5717839  73.6366964
  36.7933760  23.5086635  77.5279052  36.1224950  24.0516337  77.3992117
  37.4873510  23.9781490  77.2860746  36.7962628  23.6584906  77.4734579
  30.8420494  35.6483347  82.7590810  30.6186148  34.8902176  83.1274836
  30.3530337  35.6781368  82.0371250  30.7363943  35.5405571  82.7067551
  29.4898951  35.8683805  80.2127894  29.0759350  35.2057935  79.8231736
  30.1746325  36.0161664  79.6923589  29.5297323  35.7924463  80.0784392
  32.8564245  35.0273890  80.9651511  32.4580528  35.1376161  80.1972331
  32.2415465  35.2355957  81.5478071  32.7063134  35.0747458  80.9382810
  31.4292147  21.6348038  73.8325651  30.8356986  21.9565035  73.2810218
  31.4667425  20.7889134  73.6246757  31.3466536  21.5572366  73.7208422
  40.5906088  29.6025857  74.3494602  40.9739693  30.3517213  74.5792699
  39.7950201  29.8491677  74.0906591  40.5299870  29.7495551  74.3452175
  29.4021379  22.2745289  71.9254981  29.7820344  22.2924918  71.1406095
  28.6613975  22.7199278  71.8045828  29.3490217  22.3427063  71.7918549
  30.2006133  29.1122795  73.3163771  29.3917456  28.7889469  73.2697080
  30.7081042  28.4056017  73.2492019  30.1555800  28.9604111  73.2994065
  33.4077940  31.7262934  80.1845052  33.8789118  32.4403196  80.3535038
  33.7438119  31.1261684  80.7204922  33.5273055  31.7434398  80.2877428
  50.0823863  40.1796792  76.4424963  50.0517868  41.0341429  76.6143232
  50.6805212  39.8792085  77.0011106  50.1661021  40.2613289  76.5499765
  43.2823548  39.2672443  81.1977893  42.4261444  39.4280941  81.2487010
  43.3291202  38.3964507  81.2182954  43.1622659  39.1623245  81.2083959
  37.6664688  48.8035161  76.9615125  36.9147587  48.4250699  76.7331170
  38.1150699  48.8353595  76.2133935  37.6214355  48.7520768  76.8172627
  43.1189648  49.2260530  72.3900672  42.7841016  49.9037452  71.9544894
  43.6316518  48.8365842  71.8017543  43.1455229  49.2685109  72.2387463
  42.6593939  51.1774799  78.3311783  43.0433318  51.7461698  77.7916559
  42.5953080  50.4524309  77.8517599  42.7067366  51.1550263  78.1805646
  46.1275369  41.3264487  83.8409545  46.6731329  42.0049574  83.9003514
  46.0692245  41.1851948  82.9811126  46.1991283  41.4056489  83.7221605
  39.2449444  48.8153553  79.2277897  39.3459807  48.0053907  79.5375025
  38.6491189  48.7210500  78.5977576  39.1721983  48.6818581  79.1804136
  47.9040438  42.7549094  74.7143272  47.7879964  43.5056780  75.1435411
  48.6996324  42.4973047  74.9639359  48.0045027  42.8283941  74.8147364
  39.0850184  53.7331142  80.6292753  39.7287639  54.1744306  81.0188912
  39.4106439  52.9284568  80.5423012  39.2282012  53.6796337  80.6738230
  32.4414488  44.8373840  78.8530231  32.2064673  44.0041492  78.7462500
  32.5800129  45.1178505  78.0391432  32.4270151  44.7557343  78.7172586
  34.7404576  37.0059570  81.7514538  34.1209607  36.4152218  81.5824553
  34.6388439  37.5971006  81.1178862  34.6342251  37.0063653  81.6319528
  39.7870763  46.7443117  76.0012615  40.1086604  47.2848324  75.3973923
  40.4342860  46.1739889  76.1334905  39.9296818  46.7402292  75.9319650
  41.8372471  38.7459112  76.0847002  42.5352636  38.9247240  76.5768465
  42.1524804  38.2229451  75.4617391  41.9867808  38.6952884  76.0649012
  34.4673709  40.5511852  83.9958107  34.3432406  41.1374297  84.6307926
  35.1191993  40.0572048  84.2970382  34.5447358  40.5650656  84.1344037
  42.0260407  45.1329557  76.0726793  42.4654042  44.5246658  76.5181566
  41.8765070  44.7536930  75.3012258  42.0681872  44.9868028  76.0245960
  39.4932050  43.7273569  83.2745619  40.1381052  43.2346012  82.9556567
  39.7333827  43.8698356  84.1011697  39.6242635  43.6751011  83.3495152
  42.0318141  46.5728475  82.9252511  42.3141384  45.7779881  82.7039267
  42.7604301  47.0509062  82.9457572  42.1807705  46.5263072  82.8955526
  40.0099335  34.1151509  80.1668276  39.6802665  34.5662652  79.4971975
  39.3344337  34.0367672  80.7141283  39.8609771  34.1702644  80.1491499
  45.6269743  43.4856738  73.0257562  45.5421038  44.3417705  73.1707131
  46.1154126  43.2101062  73.6939721  45.6858640  43.5714060  73.1459644
  47.2175743  30.1037032  78.4117887  46.9029184  30.7940510  78.8438309
  46.7002684  30.0481814  77.7103388  47.0940213  30.1971920  78.3714836
  46.5588176  40.1041533  74.5255297  46.0299648  40.3201166  75.1852604
  47.0813196  40.7977671  74.4456267  46.5576629  40.2384669  74.6110897
  52.0136229  45.6787837  79.8988342  51.1833932  45.8898481  80.0621758
  51.9645482  44.8524892  79.6230625  51.8842965  45.5877443  79.8825707
  38.4487784  44.0004749  73.3262765  37.8644999  44.5054781  73.7328629
  38.0457879  43.7747136  72.5859357  38.3027088  44.0412998  73.2767791
  34.0031813  49.7159510  80.1286437  33.5199391  50.4410000  80.1046021
  34.8155131  50.0135641  80.2396595  34.0522561  49.8661864  80.1413716
  40.0745967  48.5091691  82.7336251  39.5572909  48.1499106  82.1297559
  40.7720358  47.9853866  82.7442318  40.1011548  48.3789379  82.6466510
  42.9064999  40.2470401  71.8031686  43.1461002  40.4548385  70.9907029
  43.2280840  39.4427910  71.9120631  42.9902157  40.1584503  71.6992239
  38.2155289  32.1763797  75.6491224  38.9701257  32.5442114  75.4108274
  38.0382824  32.5503352  76.4170404  38.3009767  32.2861985  75.7276112
  36.8576010  50.2315686  80.2806717  37.5596589  49.7167675  80.3379473
  36.7773493  50.5589838  81.0853592  36.9499771  50.2029913  80.4079509
  51.5090188  38.3258238  83.6938763  50.6718609  38.3960425  83.9286358
  51.4778419  38.3282733  82.8213066  51.3808470  38.3368465  83.5998311
  36.5712354  34.5834116  72.3469337  36.3887927  34.8005997  71.5210330
  37.4337967  34.6973129  72.4027951  36.6716943  34.6324014  72.2323824
  36.1826786  46.4222038  79.7892325  37.0215685  46.6544971  79.8366086
  36.2138555  45.5526350  79.7199360  36.3108503  46.3278985  79.7856969
  36.8079489  46.8422914  84.0905630  37.3477714  46.6994045  84.7609003
  36.1249435  47.2419664  84.4589657  36.7871642  46.8802584  84.2440052
  42.2512073  31.5860527  75.3818361  42.9798233  31.4076482  74.9356517
  42.3406966  32.4278607  75.5925539  42.3718735  31.6844405  75.3471878
  46.2320373  42.5213914  79.2850655  46.9877888  42.9545429  79.3239563
  46.3382698  41.8718684  79.8585291  46.3590544  42.4891398  79.3748680
  49.2700545  46.3487191  80.0353058  48.8335776  46.3523934  80.7912029
  48.9363460  47.0292690  79.6032635  49.1563165  46.4499647  80.0833890
  32.2116634  43.0623204  84.2440052  31.9455049  42.2462321  84.4031042
  32.2255198  43.1076360  83.3735567  32.1741356  42.9480109  84.1393534
  49.1898027  33.3901019  82.2782486  49.8323936  33.4599124  82.8644401
  49.4421048  32.7230242  81.7762028  49.3220160  33.3027368  82.2909765
  36.1174381  37.8608289  70.8591810  35.4032558  37.5746468  71.2714242
  36.6018349  38.2004915  71.4998197  36.0833744  37.8689938  71.0147445
  52.4044891  43.0668111  78.9272695  53.0661325  42.5058780  78.8268603
  51.7636303  42.5720142  79.2525386  52.4073758  42.9104520  78.9605035
  43.2921699  46.3638243  71.2353618  43.7072847  46.0323267  70.5438114
  42.4613628  46.1307145  71.1073755  43.2309707  46.2809499  71.1144466
  32.6210047  43.8481984  81.5251796  32.4385621  43.8228870  80.6724088
  33.3559716  44.3180922  81.5640705  32.7024111  43.9143346  81.4049715
  48.6909721  44.0833494  78.6684684  48.9265311  44.2278693  77.8411534
  48.8399285  44.8475902  79.0616197  48.7475525  44.2172548  78.6048288
  35.6855799  40.5666987  88.0333905  36.4095771  40.5520017  88.5198799
  35.7871935  41.2762342  87.5355873  35.8074008  40.6691690  88.0312692
  50.5200178  42.9235160  76.5054287  50.8508395  43.4562800  75.8994382
  51.0933266  42.9774047  77.1616238  50.6533857  43.0104729  76.5132069
  45.7332067  40.7700062  77.1877868  45.8278922  41.5089356  77.6417493
  45.1090911  40.3417538  77.6212432  45.6541097  40.8161383  77.3186015
  43.9884541  43.9486275  87.8368148  44.5623403  43.3113519  87.9916712
  43.9099345  43.9490357  86.9677806  44.0617776  43.8551386  87.7314559
  32.5880958  40.7275484  81.6750863  33.1654460  40.5911935  82.3143108
  31.8895019  40.2711269  81.9296447  32.5701979  40.6397751  81.8073152
  45.9855089  42.6148802  70.4214820  45.9035251  42.6850989  71.2869807
  46.6234809  43.1778546  70.2298560  46.0674926  42.7087773  70.5204769
  39.3448260  42.3809540  79.8889346  39.0867504  41.5481275  79.8620645
  39.3996743  42.6067153  79.0481846  39.3148038  42.2907311  79.7609483
  44.4249310  34.4837991  79.9893439  43.7205637  33.9947176  80.1477358
  44.4734284  34.4960465  79.1181883  44.3279362  34.4127639  79.8832778
  38.3182972  39.9347303  80.3754241  37.7432563  40.0939471  81.0118202
  37.9418648  39.2982712  79.9122691  38.1785784  39.8645116  80.4008799
  41.9856261  38.4070652  85.2346619  41.5970693  37.9824870  84.5798810
  41.3210959  38.6552802  85.7423646  41.8303188  38.3809373  85.2134487
  51.6279530  38.1645657  78.0094449  51.3716095  37.3525598  77.8192332
  52.4708844  38.1723224  77.7824636  51.7145555  38.0457654  77.9479266
  28.0639791  39.5787377  78.3898681  28.1500043  39.2019246  79.1712211
  28.6915588  39.2047823  77.9118640  28.1696342  39.4672860  78.4344159
  45.8082622  32.1045281  82.7470603  46.1893134  31.4223452  83.1338478
  45.0045906  31.8154883  82.5646268  45.7459084  31.9612329  82.7774659
  43.0895199  42.6369256  73.4323426  43.9035838  42.9284149  73.3206197
  43.0254340  41.9829119  72.8581719  43.1997938  42.5834451  73.3312263
  38.9603107  46.1090774  78.5595738  39.5977054  45.8702521  79.1047532
  39.3858179  46.3127933  77.8248899  39.1179273  46.1041784  78.5312895
  33.6515750  48.3479110  82.4430042  33.6919895  48.6193961  81.6149822
  34.2110274  48.8721018  82.8587830  33.7399095  48.4654865  82.3821930
  39.6005922  41.3293064  72.8970628  39.9851075  41.1100770  73.6487173
  39.3517542  42.1556009  73.0271704  39.6207995  41.4191210  73.0271704
  50.3341110  45.1039701  83.9081296  50.0286927  45.8367758  84.2694612
  49.6147325  44.6977631  83.6274082  50.1828452  45.1521434  83.9194433
  41.3424579  46.5863197  80.2389524  41.4163587  46.4238368  81.0931374
  42.1594085  46.7753386  79.9950006  41.4740938  46.5899939  80.3287550
  56.0342902  41.7432702  83.2349640  55.9667402  41.7628661  82.3652227
  56.0198564  42.5863029  83.4605311  56.0221658  41.8706437  83.1402117
  35.1030336  46.9321059  77.2683968  34.2768453  47.1782797  77.1418247
  35.1642327  46.8533140  78.1346026  34.9904503  46.9566008  77.3772912
  37.3206360  32.9990000  78.2279408  36.4528785  33.0712600  78.2937017
  37.6081564  33.8012079  78.4167383  37.2346108  33.1284147  78.2654175
  46.4439248  33.1467860  86.5590730  47.1892840  32.9577670  86.1454155
  46.0276553  33.6726098  86.0004586  46.4924222  33.1970005  86.4155303
  39.8829165  49.5497940  74.9702998  40.1727463  49.1586921  74.2462224
  40.6132646  49.7314645  75.4108273  40.0336049  49.5191753  74.9285805
  53.8201519  40.5177088  81.5096235  54.3709441  39.8845157  81.7493327
  53.8045634  41.0492481  82.2011739  53.8986715  40.5026036  81.6475093
  40.4723910  44.3515685  86.0556128  39.9735604  45.0631453  86.1341017
  41.2824134  44.6716352  86.0174291  40.5180017  44.5042534  86.0612697
  37.8235080  51.5265322  78.0363148  37.6035376  51.2362677  78.8289815
  37.6029602  50.8680277  77.5081060  37.7582675  51.3865030  78.0752056
  36.7352028  43.6138639  80.3018849  36.4465276  42.9876110  80.8364576
  37.6035376  43.5558926  80.3683530  36.8212279  43.5126183  80.3909804
  47.5229925  38.7573422  80.6200831  47.1794691  38.0363757  80.9708081
  47.6222968  38.5487273  79.7779189  47.4871968  38.6197625  80.5472511
  39.9903036  52.8994712  76.8193840  40.6427094  52.3671154  77.0484866
  39.2928645  52.5463364  77.2061714  39.9833754  52.7684235  76.9106008
  36.9384301  45.2533890  76.2261214  37.6930269  45.6346929  76.4396677
  36.3454914  45.7045033  76.6807911  36.9621015  45.3762717  76.3244093
  47.9842954  45.2199126  76.1624819  48.5500987  45.8792336  76.0783362
  47.3370858  45.5648824  76.6341221  47.9721711  45.3681067  76.2197576
  38.2582528  46.4242451  81.6001330  37.7363281  46.5642743  82.2853194
  38.6456548  45.6653115  81.7903447  38.2386228  46.3327975  81.7302406
  35.2473712  36.4748260  75.6696284  34.9598507  36.1049530  74.9328232
  35.9344180  36.9443115  75.4079989  35.3062609  36.4895229  75.5211360
  44.4549533  48.1637910  75.5861898  44.2136208  47.4305771  75.1788963
  44.6350865  48.7124767  74.9328232  44.4457156  48.1360301  75.4292121
  39.6848853  43.4546470  76.9982821  39.4891636  44.0621204  76.4043124
  39.9083199  42.7614414  76.5174495  39.6883494  43.4423995  76.8398901
  38.0827383  40.3401208  77.1163689  38.8050035  40.5042366  76.6567495
  37.6035376  41.0610873  77.0103029  38.1191114  40.4699437  77.0329303
  46.0420891  36.6765007  82.4960374  45.2031991  36.7026286  82.2598637
  46.1125258  37.3235742  83.0765721  45.9289284  36.7761132  82.5469491
  35.7335000  42.7459280  86.2217829  36.2456097  43.0243534  85.5726589
  35.4471342  43.4848574  86.5880642  35.7669863  42.8961634  86.1807707
  44.4890169  33.5750384  77.2287990  45.1916522  33.3758132  76.7507948
  44.2234358  32.8026326  77.5356833  44.5536801  33.4313350  77.2033431
  49.9178415  41.8832993  79.7821616  49.8312389  42.0388419  80.6356395
  49.4628895  42.5271069  79.4081021  49.8381671  42.0008749  79.8528722
  32.8201906  37.2529472  76.5181565  32.9218043  38.0555634  76.8462541
  33.6157793  37.0516808  76.2204646  32.9529812  37.3415371  76.5216921
  33.6365638  37.3676650  84.2602687  33.4951130  36.5160591  84.3847195
  33.9206202  37.4105311  83.4364893  33.6573484  37.2476400  84.1570311
  43.7904231  39.2043741  78.4047175  43.5438945  39.1239491  79.2383964
  44.1189354  38.4197208  78.2109703  43.8025474  39.0770006  78.4994698
  47.6852279  45.9127100  82.1933956  47.5466639  46.6108146  82.6982699
  46.9052277  45.7575756  81.8370138  47.5495506  45.9927267  82.2160231
  46.0230365  42.2123475  88.4456338  46.0178403  41.3403292  88.4498765
  46.7291358  42.4111644  87.9725794  46.1275369  42.1127349  88.3763374
  39.7501258  41.9400459  87.8170158  39.8944634  42.5201667  87.1813268
  40.0976906  42.3176756  88.5220013  39.8228719  42.0821163  87.8269153
  41.9221175  41.1390627  85.5995290  41.1744489  41.3321642  85.1943568
  42.0762701  40.3135847  85.3619411  41.8343603  41.0455739  85.5040696
  38.8229013  50.1303231  84.6831185  38.9718577  49.5706147  84.0304590
  39.6029015  50.2095233  85.0663704  38.9603107  50.0588796  84.6428134
  49.1805652  45.2705354  72.9550456  48.8012461  44.4842492  72.9479745
  48.5171898  45.8192211  72.8122100  49.0264127  45.2350178  72.9331253
  42.1622952  35.0341178  86.4890694  42.6195566  35.7665153  86.6163486
  42.2379281  34.6107643  87.2477949  42.2413922  35.0798416  86.6191770
  46.6350278  28.2131053  80.3584537  46.7533846  28.6707517  79.6251839
  46.4612454  27.4076315  80.0720754  46.6269449  28.1624826  80.2085470
  42.0052560  48.8218873  76.7939282  42.7702452  48.5528516  76.4721946
  41.9030650  48.3368883  77.5109345  42.1034056  48.7108437  76.8519110
  40.0405330  37.0243282  83.3332518  39.2501405  36.8434742  83.6549853
  40.4365953  36.2470235  83.3162812  39.9822206  36.8830743  83.3785066
  44.5271221  45.8531056  68.7739231  45.2944206  45.9131181  68.3645083
  44.0802530  45.2811498  68.2895550  44.5744648  45.7767632  68.6416942
  45.4249017  44.6585712  81.0591964  44.7494018  44.4270945  81.5605351
  45.4341393  44.0506895  80.4334069  45.3267521  44.5344638  81.0408116
  42.5543161  39.5003541  87.8156017  42.4902302  40.3613498  87.6876153
  42.6940348  39.1835534  87.0151568  42.5658631  39.5803708  87.6784229
  47.4265751  47.5150845  73.2902142  47.5085589  48.3217831  72.9663592
  47.9115493  47.5346804  74.0142915  47.5102909  47.6371507  73.3489040
  41.2362254  42.1935681  81.9572219  40.8124504  42.3940180  81.2211238
  41.0607110  41.3464529  82.0696519  41.1473135  42.0984462  81.8645910
  40.7373948  53.7086194  84.4193677  41.2269878  53.0096983  84.2369341
  40.1658180  53.4110064  85.0069734  40.7258478  53.5612417  84.4794718
  36.5244699  42.6887732  77.3900192  36.6809319  42.6234535  78.2456184
  36.8645292  43.4636285  77.1778872  36.5977934  42.7936930  77.4854786
  43.0623844  42.0645616  76.2593555  43.6039389  41.5615997  76.7232176
  43.3770403  42.0110810  75.4483040  43.1888241  41.9825037  76.2077367
  44.2113113  36.9581920  86.3115856  44.4255083  36.3192834  85.7579210
  43.5947013  37.4027744  85.8823717  44.1518443  36.9292064  86.1666287
  45.6217781  49.8800668  77.7570077  45.2297573  49.5767384  77.0392943
  45.7770854  50.7169758  77.5675030  45.5871371  49.9584505  77.6226574
  33.0978961  39.8722683  77.7060959  33.4777926  40.2907227  77.0421227
  32.5234326  40.4536138  78.0129803  33.0690286  40.0200541  77.6537700
  46.3752201  38.5670985  87.2499163  45.5628883  38.2596876  87.3312336
  46.8342136  38.0869985  87.8141875  46.3232586  38.4507478  87.3453757
  45.7857456  46.4450657  77.6976107  45.4272111  46.6165300  78.4740140
  45.2996167  46.9063863  77.1404106  45.6616153  46.5389628  77.7301376
  43.6027842  30.0681856  81.3003199  42.7321400  30.0420577  81.2536508
  43.8568183  29.8959048  80.4829044  43.5121402  30.0392000  81.1723335
  40.5745821  42.1249823  70.2376341  40.8638346  42.9014705  70.5119916
  40.6617620  41.6138554  70.9390841  40.6300078  42.1641741  70.3818839
  40.6276983  32.0788084  82.7576669  40.1115471  31.3868276  82.8828248
  40.0670911  32.7458861  82.7039268  40.4683496  32.0751342  82.7682735
  42.6969216  32.6181044  84.5869521  42.3100969  32.6430076  85.3683051
  42.2102153  32.0522723  84.1344038  42.5681725  32.5376795  84.6357425
  48.6719195  39.1843699  83.2109224  48.2446804  39.0970048  82.4557323
  48.0345248  39.2921475  83.7964068  48.5148803  39.1876359  83.1854665
  47.0016452  48.0274362  85.2848665  47.7908830  47.6763426  85.4050746
  47.1760050  48.8410750  85.0225299  47.1436734  48.0960219  85.2636533
  36.7409762  41.4383087  82.3376454  35.8997769  41.3386961  82.5455347
  36.9499770  42.2078568  82.6890774  36.6474455  41.5375131  82.4203768
  34.2185329  39.0602624  80.1661204  33.8242027  39.1345636  79.3911314
  33.6625446  39.4460571  80.7169566  34.0788142  39.1284399  80.1328864
  45.8550276  32.0383918  79.8465083  46.0599870  31.9706226  80.6922080
  45.5276700  32.8442739  79.7786261  45.8365524  32.1469859  79.9624738
  40.5526427  39.3664486  81.5874051  40.2489565  38.8120475  82.1884459
  39.8505848  39.5456696  81.1002085  40.4042637  39.3109269  81.6043757
  39.6092524  36.6765006  76.1518753  39.8852259  35.9583919  75.7396320
  40.2091194  37.2749926  75.9439859  39.7385789  36.6585377  76.0599514
  38.6144778  46.5814207  86.2946149  38.5065133  46.5916269  87.1608207
  38.8240560  47.4068988  86.1051103  38.6294889  46.7055282  86.3950241
  49.1083964  32.5915682  79.3267849  48.4958277  33.0786085  79.7121580
  49.2048139  31.9159173  79.8705500  49.0321861  32.5633991  79.4646707
  43.1103045  34.3478524  74.4265348  43.5646791  34.5189084  75.1513193
  43.5843091  33.7346634  74.0263124  43.2471365  34.2829409  74.4739110
  36.6318570  43.8326850  83.7568087  36.0406504  44.4736348  83.7271102
  37.3939594  44.2564467  83.7299386  36.6566831  43.9902688  83.7483234
  37.0279193  34.9928847  84.4236104  37.4880675  35.0667777  85.1611228
  37.0735300  35.7910101  84.0735925  37.1029748  35.1222994  84.4808861
  52.7508992  43.6632619  84.7545365  52.8092116  44.1119268  85.5005341
  52.1175459  44.0731432  84.3175445  52.6660287  43.7906354  84.7997913
  46.3908087  49.2836161  81.1900111  46.1927775  49.7726976  80.4956322
  45.7695798  49.4877403  81.7684244  46.2695651  49.3852699  81.1723334
  40.4516065  41.0521058  75.5310355  41.1958110  41.4395334  75.7693305
  40.5976761  40.2078483  75.6950843  40.5826650  40.9851531  75.5904325
  42.3695640  32.8471317  80.5642217  41.5231685  33.0194125  80.4383566
  42.3666773  32.0420661  80.9008045  42.2442790  32.7532346  80.5953344
  43.4393941  36.6246531  81.4304275  42.9653895  36.0988293  81.9409585
  43.8112077  36.0776004  80.8619136  43.4243830  36.4662528  81.4219422
  33.8166971  38.6218038  86.7987820  34.6792584  38.5213747  86.7125150
  33.4858754  38.0412747  86.2373392  33.8952167  38.5209665  86.7033226
  49.7030671  41.6848907  82.8411055  49.4628894  40.8455322  82.8453482
  50.1822678  41.7649074  83.5651829  49.7382855  41.5730307  82.9485857
  45.3677440  37.5183086  74.4930028  44.8400459  37.6011830  73.8035737
  45.8273149  38.2600957  74.4894673  45.3579291  37.6403748  74.3904724
  51.7035858  38.4650364  80.7940314  51.4645628  38.4246198  79.9561099
  51.8669760  39.3121516  80.9206035  51.6926162  38.5842449  80.6893796
  48.3081888  42.8500313  86.7245359  49.0316087  42.3972840  86.5456379
  48.0431851  43.1304979  85.9417687  48.3763162  42.8251282  86.5824075
  37.1768757  37.4460487  83.4598239  36.5521827  37.4578879  82.8524191
  36.8414352  37.9220662  84.1089479  37.0354249  37.5179004  83.4654807
  37.3610506  35.7885605  69.5170924  37.0123310  36.4405331  69.9802473
  36.8806951  35.7742719  68.7894795  37.2380749  35.8828659  69.4782015
  33.8894432  45.5060947  84.9002003  33.3594357  44.8153386  84.9496978
  34.1619526  45.4971132  84.0714711  33.8519155  45.4028079  84.7849419
  44.9214523  46.0886649  73.6239685  45.6448722  46.5544762  73.4804259
  44.4815114  46.1560259  72.8737282  44.9630215  46.1670486  73.4924467
  44.0900678  42.9484192  84.8740374  43.4757671  42.4042242  85.1689010
  44.6067963  42.4348428  84.3946191  44.0756340  42.7920601  84.8464603
  43.3296975  44.0188462  82.6084673  42.9024583  43.3938180  82.1750108
  43.3221920  43.7363384  83.4343680  43.2656116  43.8841242  82.6664501
  36.4459502  39.0553635  85.6773107  36.6052989  38.2996959  86.0824829
  36.2652396  39.6044574  86.3313845  36.4424861  39.0247449  85.8335813
  44.3879805  31.2214870  86.2323896  43.8920366  31.4178545  85.5415463
  45.1448867  31.6207539  86.0612698  44.4266630  31.3092604  86.1044033
  41.6582685  34.8957216  82.8227207  41.6825172  34.3617329  82.1339987
  41.9094158  34.3874525  83.4852798  41.6992603  34.7418120  82.8191852
  29.1690275  42.1788711  82.2570351  29.0633724  42.1335556  81.3922435
  28.4190495  42.5242492  82.5384636  29.0425878  42.2229619  82.1707681
  37.9384007  33.6228035  82.2032951  37.9782379  34.1237241  82.9167659
  37.1133672  33.7138428  81.9338874  37.8223533  33.7109851  82.2683490
  40.1213620  43.1888774  90.3053246  39.2709250  43.3260489  90.4410891
  40.2841748  42.4552553  90.7500948  40.0197483  43.1002876  90.3908845
  39.3598370  40.1388544  84.5006850  38.5290300  40.3062362  84.2942098
  39.3049888  39.7624495  85.2855736  39.2287785  40.1078276  84.5855378
  37.7334414  38.4144136  75.0296968  37.8737375  38.9116600  75.7325609
  38.2316947  37.7130430  75.1711182  37.8275495  38.3846115  75.1548547
  37.7634637  39.2811247  72.3589545  38.3979716  39.8771672  72.2939007
  37.8460247  38.9814705  73.1735415  37.8691188  39.3252155  72.4692631
  50.7417202  41.8126724  85.2275909  51.3335043  42.4523975  85.2594107
  51.1776197  41.1149761  85.5167976  50.8935634  41.8045075  85.2756742
  39.3413619  35.2125222  72.3334987  39.6629461  34.7328305  71.6794249
  39.6040563  36.0224868  72.1425799  39.4279645  35.2615120  72.2090479
  42.5710592  46.2344097  85.8533803  42.0635683  46.7879943  86.2974433
  42.2737238  46.2952387  85.0352577  42.4515477  46.3250408  85.7982260
  44.7372774  34.5997416  84.6958466  45.1627846  34.1469943  84.0841992
  44.1229768  34.0457487  84.9723253  44.7101420  34.4511392  84.6463491
  34.2687625  41.4779088  75.6279091  34.7779854  42.0743595  76.0090396
  34.7421897  41.2105061  74.9455511  34.4131000  41.5264903  75.5833614
  43.1766997  31.0712516  78.1049043  42.5335315  30.9210162  78.6734181
  42.8366404  30.8254861  77.3398148  43.0312075  31.0124639  78.0752058
  47.7666344  39.0271943  77.5279052  47.0957534  39.5701645  77.3992117
  48.4606094  39.4966798  77.2860746  47.7695211  39.1770214  77.4734579
  41.8153078  51.1668655  82.7590810  41.5918732  50.4087484  83.1274836
  41.3262921  51.1966676  82.0371250  41.7096527  51.0590879  82.7067551
  47.9294471  35.4827827  80.4369425  48.2822081  35.0557549  81.1115224
  47.0709273  35.3978670  80.5670501  47.8543916  35.4072567  80.5564435
  36.6278156  38.1135346  78.4952271  35.9090145  38.5299479  78.7625135
  36.9990519  38.6789585  77.9443909  36.5770088  38.2584628  78.4535078
  45.9277737  38.7463195  84.3854267  45.9075664  38.5646490  85.2389046
  45.9756938  39.6175214  84.3613851  45.9312378  38.8479733  84.5077562
  40.4631534  51.3869113  80.2127894  40.0491933  50.7243243  79.8231736
  41.1478909  51.5346972  79.6923589  40.5029906  51.3109771  80.0784392
  43.8296829  50.5459198  80.9651511  43.4313112  50.6561469  80.1972331
  43.2148048  50.7541265  81.5478071  43.6795718  50.5932766  80.9382810
  42.4024731  37.1533346  73.8325651  41.8089570  37.4750343  73.2810218
  42.4400008  36.3074442  73.6246757  42.3199120  37.0757674  73.7208422
  49.3618531  30.6046238  81.3653737  48.8549396  29.8975378  81.2974915
  50.1585965  30.2739427  81.4954814  49.4045771  30.4519390  81.3752732
  45.2782547  37.1112851  77.2627401  45.0496240  37.1345552  76.4205759
  45.5380623  36.2870318  77.3822412  45.2828735  36.9928931  77.1552599
  39.5601776  38.9647324  86.8652501  39.0480679  38.3568507  87.2237533
  39.3881272  39.6803916  87.3326477  39.4591413  38.9810623  86.9868725
  38.3327310  35.6489397  78.5581597  38.8084676  36.0106477  77.9231778
  37.8315909  36.3045864  78.8381739  38.3292669  35.7983586  78.5058338
  51.5638671  45.1211165  74.3494602  51.9472277  45.8702521  74.5792699
  50.7682785  45.3676985  74.0906591  51.5032454  45.2680859  74.3452175
  43.4370846  36.8871568  89.3054757  43.9942276  36.6585378  88.6733222
  43.1131911  37.6477234  89.0289969  43.4717256  36.9655405  89.1711254
  31.3069555  40.3131765  84.7743353  30.7596274  39.6432410  84.8924221
  32.0961933  39.9461612  84.8386820  31.3421739  40.1596751  84.8012053
  41.1553963  39.9739222  90.2706764  41.9065290  40.2890898  90.5846318
  41.3476540  39.7718393  89.4440686  41.2945377  39.9906603  90.1950160
  40.3753963  37.7930597  71.9254981  40.7552928  37.8110226  71.1406095
  39.6346559  38.2384586  71.8045828  40.3222801  37.8612371  71.7918549
  48.0039253  36.1012788  77.5130559  48.0033480  35.9461444  78.3714836
  47.7995433  36.9475775  77.4571945  47.9739031  36.2033409  77.6318499
  30.0656524  39.5252572  81.9289376  29.8878285  39.0729181  82.6544291
  29.7775546  40.3278734  82.1127853  29.9969478  39.5775130  82.0632879
  45.7280105  40.7810290  81.1666766  46.2233771  40.0633285  81.1270786
  44.9179881  40.4781087  81.0521253  45.6823999  40.6307936  81.1440492
  41.1738717  44.6308103  73.3163771  40.3650040  44.3074776  73.2697080
  41.6813626  43.9241325  73.2492019  41.1288384  44.4789419  73.2994065
  31.8028994  42.0580296  79.0411135  30.9374514  42.0465987  78.9293906
  31.9027810  41.8710519  79.8882274  31.6903161  42.0286357  79.1500079
  47.7931924  43.5313977  83.8543895  48.2186996  43.0088399  83.3014320
  47.4288844  44.1294815  83.3332518  47.8018527  43.5424204  83.6952905
  37.4286004  51.8278195  82.6141240  37.7432563  52.6414583  82.6219022
  37.8379417  51.4428413  83.2823400  37.5354102  51.8906897  82.7145332
  44.3810524  47.2448241  80.1845052  44.8521702  47.9588504  80.3535038
  44.7170702  46.6446992  80.7204922  44.5005639  47.2619706  80.2877428
  45.0184470  47.0366176  86.9472745  44.4705416  46.4124059  86.6792810
  45.4797499  47.2260448  86.2316824  45.0051680  46.9725226  86.8023176
  44.3712374  28.9406038  83.7384240  43.5658338  28.8303768  84.0552079
  44.2419109  29.0418494  82.8814106  44.2332507  28.9389708  83.6592281
  47.8278334  35.1051530  84.3323937  47.2441323  35.6060737  83.9201505
  48.1482628  34.5981086  83.6988261  47.7891510  35.1043365  84.1782445
  40.3673134  34.0192125  74.6082612  41.1888828  34.1890438  74.3664307
  39.9042784  34.1739386  73.8848910  40.4204296  34.0673858  74.4654256
  34.7699024  45.7751303  82.2619849  35.3743882  45.7347137  81.6333670
  34.5626337  46.6222455  82.2923905  34.8287922  45.8939306  82.1735965
  44.5842796  48.0417248  83.4782086  45.4041170  47.8980214  83.7398381
  44.3036874  48.6663447  84.0198524  44.6639540  48.1127600  83.5970026
  30.0050307  44.7585921  82.1318772  29.9074585  43.9482192  82.4408829
  30.7879176  44.7377714  81.7465040  30.1066443  44.6353011  82.1205635
  54.0922231  64.7445838  72.3900672  53.7573600  65.4222760  71.9544894
  54.6049102  64.3551150  71.8017543  54.1187812  64.7870417  72.2387463
  43.4147072  60.3559148  78.8530231  43.1797256  59.5226800  78.7462500
  43.5532713  60.6363813  78.0391432  43.4002734  60.2742651  78.7172586
  45.7137159  52.5244878  81.7514538  45.0942191  51.9337525  81.5824553
  45.6121023  53.1156313  81.1178862  45.6074835  52.5248961  81.6319528
  50.7603347  62.2628425  76.0012615  51.0819188  62.8033632  75.3973923
  51.4075443  61.6925196  76.1334905  50.9029402  62.2587600  75.9319650
  52.8105055  54.2644420  76.0847002  53.5085220  54.4432548  76.5768465
  53.1257387  53.7414759  75.4617391  52.9600392  54.2138192  76.0649012
  50.9831918  49.6336817  80.1668276  50.6535248  50.0847960  79.4971975
  50.3076920  49.5552980  80.7141283  50.8342355  49.6887952  80.1491499
  56.6002327  59.0042046  73.0257562  56.5153622  59.8603013  73.1707131
  57.0886710  58.7286370  73.6939721  56.6591224  59.0899368  73.1459644
  58.1908326  45.6222340  78.4117887  57.8761767  46.3125818  78.8438309
  57.6735268  45.5667122  77.7103388  58.0672797  45.7157228  78.3714836
  57.5320760  55.6226841  74.5255297  57.0032231  55.8386474  75.1852604
  58.0545780  56.3162979  74.4456267  57.5309213  55.7569977  74.6110897
  49.4220368  59.5190057  73.3262765  48.8377583  60.0240089  73.7328629
  49.0190463  59.2932444  72.5859357  49.2759672  59.5598306  73.2767791
  53.8797582  55.7655709  71.8031686  54.1193586  55.9733693  70.9907029
  54.2013423  54.9613218  71.9120631  53.9634740  55.6769811  71.6992239
  49.1887873  47.6949105  75.6491224  49.9433841  48.0627422  75.4108274
  49.0115407  48.0688659  76.4170404  49.2742351  47.8047293  75.7276112
  47.5444937  50.1019424  72.3469337  47.3620510  50.3191305  71.5210330
  48.4070550  50.2158437  72.4027951  47.6449527  50.1509322  72.2323824
  53.2244656  47.1045835  75.3818361  53.9530817  46.9261790  74.9356517
  53.3139549  47.9463915  75.5925539  53.3451318  47.2029713  75.3471878
  47.0906964  53.3793597  70.8591810  46.3765141  53.0931776  71.2714242
  47.5750933  53.7190223  71.4998197  47.0566328  53.3875246  71.0147445
  54.2654282  61.8823551  71.2353618  54.6805431  61.5508575  70.5438114
  53.4346212  61.6492453  71.1073755  54.2042291  61.7994807  71.1144466
  43.5613541  56.2460792  81.6750863  44.1387044  56.1097243  82.3143108
  42.8627603  55.7896577  81.9296447  43.5434563  56.1583059  81.8073152
  56.9587672  58.1334110  70.4214820  56.8767835  58.2036297  71.2869807
  57.5967393  58.6963854  70.2298560  57.0407510  58.2273081  70.5204769
  55.3981894  50.0023299  79.9893439  54.6938220  49.5132484  80.1477358
  55.4466868  50.0145773  79.1181883  55.3011945  49.9312947  79.8832778
  39.0372374  55.0972685  78.3898681  39.1232626  54.7204554  79.1712211
  39.6648172  54.7233131  77.9118640  39.1428925  54.9858167  78.4344159
  54.0627782  58.1554564  73.4323426  54.8768421  58.4469457  73.3206197
  53.9986924  57.5014427  72.8581719  54.1730521  58.1019759  73.3312263
  50.5738506  56.8478372  72.8970628  50.9583658  56.6286078  73.6487173
  50.3250126  57.6741317  73.0271704  50.5940578  56.9376518  73.0271704
  48.2938943  48.5175308  78.2279408  47.4261369  48.5897908  78.2937017
  48.5814147  49.3197387  78.4167383  48.2078691  48.6469455  78.2654175
  47.9116884  60.7719198  76.2261214  48.6662852  61.1532237  76.4396677
  47.3187497  61.2230341  76.6807911  47.9353598  60.8948025  76.3244093
  46.2206295  51.9933568  75.6696284  45.9331091  51.6234838  74.9328232
  46.9076763  52.4628423  75.4079989  46.2795192  52.0080537  75.5211360
  50.6581437  58.9731778  76.9982821  50.4624219  59.5806512  76.4043124
  50.8815782  58.2799722  76.5174495  50.6616078  58.9609303  76.8398901
  49.0559967  55.8586516  77.1163689  49.7782619  56.0227674  76.6567495
  48.5767960  56.5796181  77.0103029  49.0923697  55.9884745  77.0329303
  55.4622753  49.0935692  77.2287990  56.1649105  48.8943440  76.7507948
  55.1966941  48.3211634  77.5356833  55.5269385  48.9498658  77.2033431
  43.7934490  52.7714780  76.5181565  43.8950626  53.5740941  76.8462541
  44.5890377  52.5702116  76.2204646  43.9262395  52.8600679  76.5216921
  60.1538236  60.7890662  72.9550456  59.7745045  60.0027799  72.9479745
  59.4904481  61.3377519  72.8122100  59.9996711  60.7535486  72.9331253
  57.6082862  43.7316361  80.3584537  57.7266430  44.1892825  79.6251839
  57.4345038  42.9261623  80.0720754  57.6002033  43.6810133  80.2085470
  55.5003805  61.3716364  68.7739231  56.2676790  61.4316489  68.3645083
  55.0535114  60.7996806  68.2895550  55.5477232  61.2952940  68.6416942
  47.4977283  58.2073040  77.3900192  47.6541902  58.1419843  78.2456184
  47.8377876  58.9821593  77.1778872  47.5710518  58.3122238  77.4854786
  54.0356428  57.5830924  76.2593555  54.5771973  57.0801305  76.7232176
  54.3502987  57.5296118  75.4483040  54.1620825  57.5010344  76.2077367
  52.2042877  62.9748275  73.5433583  52.2735698  62.1162814  73.6826584
  52.9831332  63.1920156  73.2152608  52.3295727  62.8801139  73.5150741
  44.0711544  55.3907990  77.7060959  44.4510509  55.8092535  77.0421227
  43.4966909  55.9721446  78.0129803  44.0422869  55.5385849  77.6537700
  54.5760426  45.5867164  81.3003199  53.7053984  45.5605885  81.2536508
  54.8300767  45.4144356  80.4829044  54.4853986  45.5577307  81.1723335
  51.5478405  57.6435131  70.2376341  51.8370930  58.4200013  70.5119916
  51.6350204  57.1323862  70.9390841  51.6032661  57.6827049  70.3818839
  51.6009566  47.5973392  82.7576669  51.0848055  46.9053584  82.8828248
  51.0403495  48.2644169  82.7039268  51.4416079  47.5936650  82.7682735
  45.1917913  54.5787932  80.1661204  44.7974611  54.6530944  79.3911314
  44.6358030  54.9645878  80.7169566  45.0520725  54.6469707  80.1328864
  56.8282860  47.5569226  79.8465083  57.0332453  47.4891534  80.6922080
  56.5009284  48.3628047  79.7786261  56.8098108  47.6655167  79.9624738
  50.5825108  52.1950314  76.1518753  50.8584842  51.4769227  75.7396320
  51.1823777  52.7935234  75.9439859  50.7118373  52.1770685  76.0599514
  60.0816547  48.1100990  79.3267849  59.4690861  48.5971393  79.7121580
  60.1780722  47.4344481  79.8705500  60.0054445  48.0819299  79.4646707
  54.0835628  49.8663832  74.4265348  54.5379375  50.0374392  75.1513193
  54.5575674  49.2531942  74.0263124  54.2203949  49.8014717  74.4739110
  51.4248648  56.5706366  75.5310355  52.1690693  56.9580642  75.7693305
  51.5709345  55.7263791  75.6950843  51.5559234  56.5036839  75.5904325
  53.3428224  48.3656625  80.5642217  52.4964269  48.5379433  80.4383566
  53.3399356  47.5605969  80.9008045  53.2175374  48.2717654  80.5953344
  56.3410024  53.0368394  74.4930028  55.8133043  53.1197138  73.8035737
  56.8005732  53.7786265  74.4894673  56.3311874  53.1589056  74.3904724
  48.3343089  51.3070913  69.5170924  47.9855893  51.9590639  69.9802473
  47.8539535  51.2928026  68.7894795  48.2113333  51.4013967  69.4782015
  55.8947106  61.6071957  73.6239685  56.6181305  62.0730070  73.4804259
  55.4547697  61.6745567  72.8737282  55.9362799  61.6855794  73.4924467
  40.1422858  57.6974019  82.2570351  40.0366307  57.6520863  81.3922435
  39.3923078  58.0427800  82.5384636  40.0158461  57.7414927  82.1707681
  48.9116591  49.1413342  82.2032951  48.9514962  49.6422549  82.9167659
  48.0866255  49.2323736  81.9338874  48.7956117  49.2295159  82.2683490
  48.7066998  53.9329444  75.0296968  48.8469959  54.4301908  75.7325609
  49.2049531  53.2315738  75.1711182  48.8008079  53.9031423  75.1548547
  48.7367220  54.7996555  72.3589545  49.3712300  55.3956980  72.2939007
  48.8192831  54.5000012  73.1735415  48.8423771  54.8437463  72.4692631
  50.3146203  50.7310530  72.3334987  50.6362044  50.2513613  71.6794249
  50.5773147  51.5410176  72.1425799  50.4012228  50.7800428  72.2090479
  45.2420208  56.9964396  75.6279091  45.7512437  57.5928903  76.0090396
  45.7154480  56.7290369  74.9455511  45.3863584  57.0450211  75.5833614
  54.1499581  46.5897824  78.1049043  53.5067899  46.4395470  78.6734181
  53.8098988  46.3440169  77.3398148  54.0044658  46.5309946  78.0752058
  47.6010740  53.6320654  78.4952271  46.8822729  54.0484787  78.7625135
  47.9723102  54.1974893  77.9443909  47.5502672  53.7769936  78.4535078
  53.3757314  52.6718654  73.8325651  52.7822153  52.9935651  73.2810218
  53.4132592  51.8259749  73.6246757  53.2931703  52.5942982  73.7208422
  56.2515131  52.6298159  77.2627401  56.0228824  52.6530860  76.4205759
  56.5113207  51.8055626  77.3822412  56.2561319  52.5114238  77.1552599
  49.3059893  51.1674705  78.5581597  49.7817260  51.5291785  77.9231778
  48.8048493  51.8231172  78.8381739  49.3025252  51.3168894  78.5058338
  51.3486546  53.3115905  71.9254981  51.7285511  53.3295534  71.1406095
  50.6079142  53.7569893  71.8045828  51.2955384  53.3797679  71.7918549
  58.9771837  51.6198096  77.5130559  58.9766063  51.4646752  78.3714836
  58.7728017  52.4661083  77.4571945  58.9471615  51.7218717  77.6318499
  41.0389108  55.0437880  81.9289376  40.8610869  54.5914489  82.6544291
  40.7508130  55.8464042  82.1127853  40.9702061  55.0960438  82.0632879
  52.1471301  60.1493411  73.3163771  51.3382623  59.8260084  73.2697080
  52.6546209  59.4426633  73.2492019  52.1020967  59.9974727  73.2994065
  42.7761578  57.5765604  79.0411135  41.9107097  57.5651294  78.9293906
  42.8760394  57.3895827  79.8882274  42.6635745  57.5471665  79.1500079
  55.3444957  44.4591346  83.7384240  54.5390921  44.3489076  84.0552079
  55.2151693  44.5603802  82.8814106  55.2065090  44.4575016  83.6592281
  51.3405717  49.5377433  74.6082612  52.1621411  49.7075746  74.3664307
  50.8775368  49.6924694  73.8848910  51.3936879  49.5859166  74.4654256
  38.8042104   1.5989615  63.3765009  38.7736108   2.4534252  63.5483279
  39.4023452   1.2984908  63.9351153  38.8879261   1.6806112  63.4839812
  26.3882928  10.2227984  63.8955171  25.6365828   9.8443523  63.6671216
  26.8368940  10.2546418  63.1473982  26.3432595  10.1713591  63.7512674
  31.8407888  10.6453354  59.3240718  31.5059256  11.3230275  58.8884941
  32.3534758  10.2558665  58.7357590  31.8673469  10.6877932  59.1727510
  31.3812179  12.5967622  65.2651830  31.7651559  13.1654521  64.7256605
  31.3171321  11.8717133  64.7857646  31.4285606  12.5743086  65.1145693
  27.9667684  10.2346376  66.1617944  28.0678047   9.4246730  66.4715072
  27.3709430  10.1403323  65.5317622  27.8940223  10.1011404  66.1144182
  36.6258678   4.1741917  61.6483319  36.5098204   4.9249603  62.0775457
  37.4214565   3.9165871  61.8979406  36.7263268   4.2476764  61.7487411
  27.8068424  15.1523966  67.5632800  28.4505879  15.5937130  67.9528958
  28.1324679  14.3477392  67.4763059  27.9500253  15.0989160  67.6078277
  28.5089004   8.1635940  62.9352662  28.8304845   8.7041148  62.3313970
  29.1561100   7.5932712  63.0674951  28.6515059   8.1595116  62.8659697
  30.5590712   0.1651935  63.0187048  31.2570876   0.3440063  63.5108512
  30.8743044  -0.3577725  62.3957438  30.7086049   0.1145707  62.9989059
  30.7478647   6.5522380  63.0066840  31.1872283   5.9439481  63.4521613
  30.5983310   6.1729754  62.2352305  30.7900113   6.4060851  62.9586007
  34.3487984   4.9049562  59.9597609  34.2639279   5.7610528  60.1047178
  34.8372367   4.6293886  60.6279768  34.4076881   4.9906883  60.0799691
  35.2806417   1.5234356  61.4595344  34.7517888   1.7393989  62.1192650
  35.8031437   2.2170494  61.3796314  35.2794870   1.6577493  61.5450943
  40.7354470   7.0980660  66.8328389  39.9052173   7.3091304  66.9961805
  40.6863722   6.2717715  66.5570672  40.6061205   7.0070267  66.8165754
  27.1706025   5.4197573  60.2602812  26.5863240   5.9247604  60.6668676
  26.7676120   5.1939960  59.5199404  27.0245328   5.4605821  60.2107837
  31.6283239   1.6663225  58.7371733  31.8679243   1.8741208  57.9247076
  31.9499080   0.8620733  58.8460677  31.7120397   1.5777326  58.6332286
  25.5794251  11.6508510  67.2146764  26.2814830  11.1360499  67.2719520
  25.4991734  11.9782661  68.0193639  25.6718011  11.6222736  67.3419556
  34.9538614   3.9406737  66.2190701  35.7096129   4.3738252  66.2579610
  35.0600938   3.2911507  66.7925338  35.0808784   3.9084221  66.3088727
  37.9918785   7.7680015  66.9693104  37.5554017   7.7716757  67.7252076
  37.6581700   8.4485514  66.5372682  37.8781405   7.8692470  67.0173937
  24.8392621  -0.7198888  57.7931857  24.1250798  -1.0060708  58.2054289
  25.3236590  -0.3802262  58.4338244  24.8051984  -0.7117238  57.9487492
  41.1263131   4.4860935  65.8612742  41.7879565   3.9251603  65.7608650
  40.4854543   3.9912965  66.1865433  41.1291999   4.3297344  65.8945082
  32.0139939   7.7831066  58.1693665  32.4291087   7.4516090  57.4778161
  31.1831869   7.5499968  58.0413802  31.9527948   7.7002322  58.0484512
  37.4127962   5.5026317  65.6024730  37.6483551   5.6471516  64.7751581
  37.5617526   6.2668725  65.9956244  37.4693765   5.6365371  65.5388334
  39.2418419   4.3427983  63.4394334  39.5726636   4.8755623  62.8334429
  39.8151507   4.3966871  64.0956285  39.3752098   4.4297552  63.4472116
  34.4550308   2.1892886  64.1217914  34.5497162   2.9282180  64.5757540
  33.8309151   1.7610361  64.5552479  34.3759338   2.2354206  64.2526062
  34.7073329   4.0341625  57.3554866  34.6253492   4.1043813  58.2209853
  35.3453050   4.5971369  57.1638607  34.7893166   4.1280596  57.4544816
  40.3497770  -0.4161520  64.9434496  40.0934335  -1.2281579  64.7532379
  41.1927084  -0.4083953  64.7164683  40.4363796  -0.5349523  64.8819313
  31.8113439   4.0562080  60.3663473  32.6254078   4.3476972  60.2546244
  31.7472580   3.4021942  59.7921766  31.9216178   4.0027274  60.2652310
  27.6821347   7.5283597  65.4935785  28.3195294   7.2895345  66.0387578
  28.1076419   7.7320756  64.7588946  27.8397514   7.5234607  65.4652942
  28.3224163   2.7485887  59.8310674  28.7069315   2.5293594  60.5827219
  28.0735783   3.5748832  59.9611751  28.3426235   2.8384033  59.9611751
  44.7561142   3.1625525  70.1689687  44.6885642   3.1821484  69.2992274
  44.7416805   4.0055852  70.3945358  44.7439899   3.2899260  70.0742164
  23.8248576   8.3513883  64.2024015  22.9986694   8.5975620  64.0758293
  23.8860567   8.2725963  65.0686073  23.7122743   8.3758832  64.3112959
  28.6047405  10.9690763  61.9043045  28.8945704  10.5779744  61.1802271
  29.3350886  11.1507468  62.3448320  28.7554289  10.9384577  61.8625852
  42.5419759   1.9369911  68.4436282  43.0927681   1.3037981  68.6833374
  42.5263875   2.4685304  69.1351786  42.6204956   1.9218860  68.5815140
  26.5453321  12.9458145  64.9703194  26.3253616  12.6555500  65.7629861
  26.3247843  12.2873100  64.4421107  26.4800915  12.8057854  65.0092103
  28.7121276  14.3187535  63.7533887  29.3645334  13.7863977  63.9824913
  28.0146885  13.9656187  64.1401761  28.7051994  14.1877058  63.8446054
  25.6602541   6.6726713  63.1601261  26.4148509   7.0539752  63.3736724
  25.0673154   7.1237856  63.6147958  25.6839255   6.7955540  63.2584139
  36.7061195   6.6391949  63.0964866  37.2719227   7.2985159  63.0123409
  36.0589098   6.9841647  63.5681268  36.6939951   6.7873891  63.1537622
  33.1767773   9.5830733  62.5201945  32.9354449   8.8498594  62.1129010
  33.3569106  10.1317590  61.8668279  33.1675397   9.5553125  62.3632168
  28.4067094   4.8739293  63.9322867  28.2109876   5.4814028  63.3383170
  28.6301439   4.1807237  63.4514541  28.4101735   4.8616819  63.7738948
  38.6396655   3.3025817  66.7161663  38.5530629   3.4581243  67.5696441
  38.1847135   3.9463892  66.3421068  38.5599912   3.4201572  66.7868769
  36.4070520   7.3319923  69.1274003  36.2684879   8.0300969  69.6322746
  35.6270518   7.1768580  68.7710185  36.2713747   7.4120090  69.1500277
  37.9023893   6.6898177  59.8890503  37.5230701   5.9035315  59.8819792
  37.2390138   7.2385034  59.7462147  37.7482367   6.6543001  59.8671299
  30.7270801  10.2411696  63.7279329  31.4920692   9.9721340  63.4061993
  30.6248891   9.7561706  64.4449392  30.8252296  10.1301261  63.7859156
  33.2489461   7.2723880  55.7079278  34.0162446   7.3324005  55.2985130
  32.8020770   6.7004321  55.2235597  33.2962889   7.1960455  55.5756988
  36.1483991   8.9343668  60.2242188  36.2303829   9.7410654  59.9003639
  36.6333734   8.9539627  60.9482962  36.2321149   9.0564330  60.2829087
  31.7842084   3.4838439  63.1933602  32.3257630   2.9808820  63.6572223
  32.0988643   3.4303634  62.3823087  31.9106481   3.4017860  63.1417414
  29.9528534   8.8755790  60.4773630  30.0221354   8.0170329  60.6166630
  30.7316989   9.0927671  60.1492655  30.0781384   8.7808654  60.4490787
  34.3436022  11.2993492  64.6910123  33.9515813  10.9960207  63.9732990
  34.4989094  12.1362582  64.5015077  34.3089611  11.3777328  64.5566620
  34.5075696   7.8643481  64.6316154  34.1490351   8.0358123  65.4080186
  34.0214407   8.3256686  64.0744152  34.3834393   7.9582452  64.6641423
  29.2964062   3.5442646  57.1716388  29.5856587   4.3207528  57.4459963
  29.3835861   3.0331377  57.8730888  29.3518318   3.5834564  57.3158886
  35.1126327  10.7028984  68.1240158  34.9146016  11.1919799  67.4296369
  34.4914038  10.9070226  68.7024291  34.9913891  10.8045523  68.1063381
  29.1734305   2.4713881  62.4650402  29.9176350   2.8588157  62.7033352
  29.3195001   1.6271307  62.6290890  29.3044890   2.4044354  62.5244372
  34.0895681  -1.0624091  61.4270075  33.5618699  -0.9795347  60.7375784
  34.5491389  -0.3206219  61.4234720  34.0797531  -0.9403429  61.3244770
  26.0828746  -2.7921571  56.4510970  25.7341550  -2.1401846  56.9142520
  25.6025192  -2.8064458  55.7234842  25.9598990  -2.6978518  56.4122062
  33.6432763   7.5079473  60.5579732  34.3666962   7.9737586  60.4144305
  33.2033354   7.5753082  59.8077329  33.6848455   7.5863309  60.4264514
  26.4852877   0.7004070  59.2929592  27.1197956   1.2964495  59.2279053
  26.5678488   0.4007528  60.1075462  26.5909428   0.7444978  59.4032678
  28.0631860  -3.3681954  59.2675034  28.3847701  -3.8478872  58.6134296
  28.3258804  -2.5582308  59.0765845  28.1497885  -3.3192057  59.1430526
  33.9036613  11.5700178  60.7177793  33.1865923  11.3961040  60.2525031
  34.5543351  11.3352750  60.1853279  33.8938463  11.5095970  60.5707011
  36.4884584   0.4464766  64.4619098  35.8175774   0.9894468  64.3332164
  37.1824334   0.9159621  64.2200793  36.4913452   0.5963037  64.4074626
  30.5371318  12.5861478  69.6930857  30.3136972  11.8280307  70.0614883
  30.0481161  12.6159499  68.9711296  30.4314767  12.4783703  69.6407598
  29.1849775  12.8061936  67.1467941  28.7710173  12.1436066  66.7571783
  29.8697149  12.9539795  66.6263635  29.2248147  12.7302594  67.0124438
  32.5515069  11.9652022  67.8991558  32.1531352  12.0754292  67.1312378
  31.9366289  12.1734088  68.4818118  32.4013958  12.0125590  67.8722857
  31.1242971  -1.4273831  60.7665698  30.5307810  -1.1056834  60.2150265
  31.1618249  -2.2732735  60.5586804  31.0417360  -1.5049502  60.6548469
  40.2856912   6.5403988  61.2834648  40.6690517   7.2895344  61.5132746
  39.4901025   6.7869808  61.0246638  40.2250694   6.6873682  61.2792222
  29.0972203  -0.7876580  58.8595027  29.4771168  -0.7696951  58.0746142
  28.3564799  -0.3422591  58.7385875  29.0441041  -0.7194805  58.7258596
  29.8956957   6.0500926  60.2503817  29.0868280   5.7267600  60.2037127
  30.4031866   5.3434148  60.1832066  29.8506624   5.8982243  60.2334112
  33.1028764   8.6641065  67.1185099  33.5739942   9.3781327  67.2875084
  33.4388943   8.0639815  67.6544969  33.2223879   8.6812529  67.2217475
  49.7774687  17.1174923  63.3765009  49.7468691  17.9719560  63.5483279
  50.3756036  16.8170216  63.9351153  49.8611845  17.1991420  63.4839812
  42.9774372  16.2050574  68.1317940  42.1212267  16.3659073  68.1827057
  43.0242026  15.3342638  68.1523001  42.8573483  16.1001376  68.1424006
  37.3615512  25.7413292  63.8955171  36.6098411  25.3628830  63.6671216
  37.8101523  25.7731726  63.1473982  37.3165178  25.6898899  63.7512674
  46.2868088  22.4737100  77.7378396  46.9934856  21.9789131  77.8665330
  46.4756024  22.9146181  77.0081054  46.4195994  22.4655450  77.6487441
  42.8140472  26.1638662  59.3240718  42.4791840  26.8415583  58.8884941
  43.3267342  25.7743973  58.7357590  42.8406053  26.2063240  59.1727510
  42.3544763  28.1152930  65.2651830  42.7384142  28.6839829  64.7256605
  42.2903904  27.3902441  64.7857646  42.4018190  28.0928394  65.1145693
  45.8226193  18.2642618  70.7749591  46.3682153  18.9427705  70.8343561
  45.7643069  18.1230079  69.9151173  45.8942107  18.3434620  70.6561652
  38.9400268  25.7531684  66.1617944  39.0410631  24.9432038  66.4715072
  38.3442013  25.6588631  65.5317622  38.8672806  25.6196712  66.1144182
  47.5991262  19.6927225  61.6483319  47.4830788  20.4434911  62.0775457
  48.3947148  19.4351179  61.8979406  47.6995851  19.7662072  61.7487411
  38.7801007  30.6709273  67.5632800  39.4238463  31.1122438  67.9528958
  39.1057263  29.8662700  67.4763059  38.9232836  30.6174468  67.6078277
  32.1365312  21.7751971  65.7870278  31.9015497  20.9419623  65.6802546
  32.2750953  22.0556637  64.9731479  32.1220975  21.6935474  65.6512633
  34.4355400  13.9437701  68.6854585  33.8160431  13.3530349  68.5164600
  34.3339263  14.5349137  68.0518908  34.3293075  13.9441784  68.5659575
  39.4821587  23.6821248  62.9352662  39.8037428  24.2226456  62.3313970
  40.1293684  23.1118020  63.0674951  39.6247642  23.6780423  62.8659697
  41.5323295  15.6837243  63.0187048  42.2303460  15.8625371  63.5108512
  41.8475628  15.1607583  62.3957438  41.6818632  15.6331015  62.9989059
  34.1624533  17.4889983  70.9298154  34.0383229  18.0752429  71.5647973
  34.8142817  16.9950179  71.2310429  34.2398182  17.5028788  71.0684084
  41.7211231  22.0707688  63.0066840  42.1604866  21.4624789  63.4521613
  41.5715893  21.6915062  62.2352305  41.7632696  21.9246159  62.9586007
  39.1882874  20.6651700  70.2085665  39.8331876  20.1724143  69.8896614
  39.4284651  20.8076487  71.0351744  39.3193459  20.6129142  70.2835199
  41.7268965  23.5106606  69.8592558  42.0092208  22.7158012  69.6379314
  42.4555125  23.9887193  69.8797619  41.8758529  23.4641203  69.8295573
  39.7050159  11.0529640  67.1008323  39.3753489  11.5040783  66.4312022
  39.0295161  10.9745803  67.6481329  39.5560595  11.1080775  67.0831546
  45.3220567  20.4234870  59.9597609  45.2371862  21.2795836  60.1047178
  45.8104950  20.1479194  60.6279768  45.3809464  20.5092191  60.0799691
  46.9126567   7.0415163  65.3457934  46.5980008   7.7318641  65.7778356
  46.3953508   6.9859945  64.6443434  46.7891037   7.1350051  65.3054883
  46.2539000  17.0419664  61.4595344  45.7250472  17.2579297  62.1192650
  46.7764020  17.7355802  61.3796314  46.2527453  17.1762801  61.5450943
  51.7087053  22.6165968  66.8328389  50.8784756  22.8276612  66.9961805
  51.6596306  21.7903023  66.5570672  51.5793789  22.5255574  66.8165754
  38.1438608  20.9382881  60.2602812  37.5595823  21.4432912  60.6668676
  37.7408703  20.7125267  59.5199404  37.9977912  20.9791129  60.2107837
  33.6982637  26.6537642  67.0626484  33.2150215  27.3788131  67.0386067
  34.5105955  26.9513772  67.1736641  33.7473385  26.8039995  67.0753763
  39.7696791  25.4469822  69.6676298  39.2523733  25.0877237  69.0637606
  40.4671182  24.9231997  69.6782364  39.7962372  25.3167510  69.5806557
  43.4260383  25.8964636  75.6292471  43.5143729  25.7090777  76.4770682
  43.8550095  25.2502066  75.2297318  43.5022485  25.7727644  75.6964223
  40.9930843  25.1795796  74.6110133  40.4301677  24.7668406  75.1349795
  41.7551866  25.1048702  75.0303277  41.0225291  25.1073197  74.7503134
  42.6015823  17.1848533  58.7371733  42.8411826  17.3926516  57.9247076
  42.9231664  16.3806041  58.8460677  42.6852981  17.0962634  58.6332286
  37.9106113   9.1141928  62.5831271  38.6652081   9.4820245  62.3448321
  37.7333647   9.4881483  63.3510450  37.9960591   9.2240116  62.6616159
  36.5526834  27.1693818  67.2146764  37.2547413  26.6545807  67.2719520
  36.4724317  27.4967969  68.0193639  36.6450595  27.1408044  67.3419556
  51.2041012  15.2636369  70.6278810  50.3669433  15.3338556  70.8626404
  51.1729243  15.2660864  69.7553112  51.0759294  15.2746596  70.5338358
  36.2663178  11.5212247  59.2809384  36.0838751  11.7384128  58.4550376
  37.1288791  11.6351260  59.3367998  36.3667767  11.5702145  59.1663871
  35.8777609  23.3600170  66.7232372  36.7166509  23.5923102  66.7706133
  35.9089379  22.4904481  66.6539407  36.0059327  23.2657116  66.7197016
  36.5030313  23.7801045  71.0245677  37.0428537  23.6372176  71.6949049
  35.8200259  24.1797796  71.3929703  36.4822466  23.8180716  71.1780099
  41.9462897   8.5238658  62.3158408  42.6749057   8.3454613  61.8696564
  42.0357790   9.3656738  62.5265586  42.0669559   8.6222536  62.2811925
  45.9271197  19.4592045  66.2190701  46.6828712  19.8923560  66.2579610
  46.0333522  18.8096815  66.7925338  46.0541368  19.4269529  66.3088727
  48.9651368  23.2865323  66.9693104  48.5286600  23.2902065  67.7252076
  48.6314284  23.9670822  66.5372682  48.8513988  23.3877778  67.0173937
  43.5380442  25.3273655  78.2936255  44.3220859  25.4404503  78.6591997
  43.3377037  24.5014793  78.4894941  43.6246468  25.2220375  78.3770641
  31.9067458  20.0001336  71.1780099  31.6405873  19.1840452  71.3371089
  31.9206022  20.0454491  70.3075614  31.8692180  19.8858240  71.0733581
  48.8848851  10.3279150  69.2122532  49.5274760  10.3977255  69.7984448
  49.1371872   9.6608373  68.7102074  49.0170984  10.2405499  69.2249812
  35.8125205  14.7986420  57.7931857  35.0983382  14.5124599  58.2054289
  36.2969173  15.1383046  58.4338244  35.7784568  14.8068070  57.9487492
  43.6950835  27.2383757  71.9402710  42.8966081  26.9983258  72.1976579
  44.1436847  27.2898150  72.6869758  43.6425447  27.2106149  72.0887635
  52.0995715  20.0046242  65.8612742  52.7612149  19.4436911  65.7608650
  51.4587127  19.5098273  66.1865433  52.1024582  19.8482652  65.8945082
  42.9872522  23.3016374  58.1693665  43.4023671  22.9701398  57.4778161
  42.1564452  23.0685276  58.0413802  42.9260531  23.2187630  58.0484512
  32.3160871  20.7860115  68.4591843  32.1336444  20.7607001  67.6064135
  33.0510540  21.2559053  68.4980752  32.3974935  20.8521477  68.3389761
  48.3860545  21.0211625  65.6024730  48.6216135  21.1656824  64.7751581
  48.5350109  21.7854033  65.9956244  48.4426349  21.1550679  65.5388334
  35.3806623  17.5045118  74.9673952  36.1046595  17.4898148  75.4538846
  35.4822759  18.2140473  74.4695920  35.5024832  17.6069821  74.9652738
  50.2151002  19.8613291  63.4394334  50.5459219  20.3940931  62.8334429
  50.7884090  19.9152179  64.0956285  50.3484681  19.9482860  63.4472116
  42.7551572  20.9844202  79.8322899  41.9624553  21.2987714  80.0175518
  42.8700499  21.1995671  78.9943683  42.6546983  21.0628039  79.7361233
  45.4282891  17.7078194  64.1217914  45.5229746  18.4467488  64.5757540
  44.8041735  17.2795669  64.5552479  45.3491921  17.7539514  64.2526062
  43.6835365  20.8864406  74.7708195  44.2574227  20.2491650  74.9256759
  43.6050169  20.8868489  73.9017853  43.7568600  20.7929518  74.6654606
  32.2831782  17.6653616  68.6090910  32.8605284  17.5290066  69.2483155
  31.5845843  17.2089400  68.8636494  32.2652803  17.5775882  68.7413199
  45.6805913  19.5526933  57.3554866  45.5986075  19.6229120  58.2209853
  46.3185633  20.1156677  57.1638607  45.7625750  19.6465904  57.4544816
  39.0399084  19.3187671  66.8229393  38.7818328  18.4859406  66.7960692
  39.0947567  19.5445284  65.9821893  39.0098862  19.2285443  66.6949529
  44.1200134  11.4216122  66.9233485  43.4156461  10.9325307  67.0817405
  44.1685108  11.4338596  66.0521930  44.0230185  11.3505770  66.8172825
  38.0133796  16.8725434  67.3094287  37.4383387  17.0317602  67.9458248
  37.6369472  16.2360843  66.8462738  37.8736608  16.8023247  67.3348846
  41.6807085  15.3448783  72.1686666  41.2921517  14.9203001  71.5138857
  41.0161783  15.5930933  72.6763693  41.5254012  15.3187504  72.1474534
  51.3230354  15.1023788  64.9434496  51.0666919  14.2903729  64.7532379
  52.1659668  15.1101355  64.7164683  51.4096379  14.9835785  64.8819313
  27.7590615  16.5165509  65.3238728  27.8450867  16.1397377  66.1052258
  28.3866412  16.1425954  64.8458686  27.8647166  16.4050991  65.3684205
  45.5033446   9.0423412  69.6810650  45.8843958   8.3601583  70.0678524
  44.6996730   8.7533014  69.4986315  45.4409908   8.8990460  69.7114706
  42.7846023  19.5747388  60.3663473  43.5986662  19.8662280  60.2546244
  42.7205164  18.9207250  59.7921766  42.8948762  19.5212582  60.2652310
  49.0055513  22.2573384  74.7793049  48.7694150  21.4261449  74.6605109
  49.6498742  22.2058991  75.3647893  49.0650184  22.1271072  74.8478942
  38.6553931  23.0468905  65.4935785  39.2927878  22.8080653  66.0387578
  39.0809003  23.2506064  64.7588946  38.8130097  23.0419915  65.4652942
  33.3466573  25.2857242  69.3770089  33.3870719  25.5572093  68.5489868
  33.9061098  25.8099150  69.7927877  33.4349919  25.4032997  69.3161977
  39.2956746  18.2671195  59.8310674  39.6801899  18.0478902  60.5827219
  39.0468366  19.0934140  59.9611751  39.3158819  18.3569341  59.9611751
  50.0291934  22.0417833  70.8421343  49.7237751  22.7745889  71.2034659
  49.3098149  21.6355762  70.5614129  49.8779276  22.0899566  70.8534480
  41.0375403  23.5241328  67.1729571  41.1114411  23.3616500  68.0271421
  41.8544909  23.7131517  66.9290053  41.1691762  23.5278070  67.2627597
  55.7293726  18.6810833  70.1689687  55.6618226  18.7006792  69.2992274
  55.7149388  19.5241160  70.3945358  55.7172482  18.8084568  70.0742164
  34.7981160  23.8699191  64.2024015  33.9719277  24.1160928  64.0758293
  34.8593151  23.7911271  65.0686073  34.6855327  23.8944140  64.3112959
  37.0157183   9.9368132  65.1619455  36.1479609  10.0090731  65.2277064
  37.3032388  10.7390210  65.3507430  36.9296932  10.0662279  65.1994221
  46.1390072  10.0845991  73.4930777  46.8843664   9.8955801  73.0794202
  45.7227377  10.6104229  72.9344633  46.1875046  10.1348136  73.3495350
  39.5779989  26.4876071  61.9043045  39.8678287  26.0965052  61.1802271
  40.3083470  26.6692776  62.3448320  39.7286873  26.4569885  61.8625852
  53.5152343  17.4555219  68.4436282  54.0660265  16.8223288  68.6833374
  53.4996458  17.9870612  69.1351786  53.5937539  17.4404168  68.5815140
  40.1674734  21.2893817  72.9896175  39.6686428  22.0009584  73.0681064
  40.9774958  21.6094483  72.9514337  40.2130841  21.4420665  72.9952744
  37.5185904  28.4643453  64.9703194  37.2986200  28.1740808  65.7629861
  37.2980426  27.8058408  64.4421107  37.4533499  28.3243162  65.0092103
  36.4302852  20.5516770  67.2358896  36.1416100  19.9254241  67.7704623
  37.2986200  20.4937057  67.3023576  36.5163103  20.4504314  67.3249851
  47.2180749  15.6951553  67.5540878  46.8745515  14.9741888  67.9048128
  47.3173792  15.4865404  66.7119236  47.1822792  15.5575756  67.4812558
  39.6853860  29.8372843  63.7533887  40.3377918  29.3049285  63.9824913
  38.9879469  29.4841495  64.1401761  39.6784578  29.7062366  63.8446054
  36.6335125  22.1912021  63.1601261  37.3881093  22.5725060  63.3736724
  36.0405738  22.6423164  63.6147958  36.6571838  22.3140848  63.2584139
  47.6793778  22.1577257  63.0964866  48.2451811  22.8170467  63.0123409
  47.0321682  22.5026955  63.5681268  47.6672535  22.3059198  63.1537622
  37.9533352  23.3620582  68.5341376  37.4314105  23.5020874  69.2193241
  38.3407372  22.6031246  68.7243494  37.9337052  23.2706106  68.6642453
  34.9424536  13.4126391  62.6036331  34.6549331  13.0427661  61.8668278
  35.6295004  13.8821246  62.3420036  35.0013433  13.4273360  62.4551407
  44.1500356  25.1016041  62.5201945  43.9087032  24.3683902  62.1129010
  44.3301689  25.6502898  61.8668279  44.1407980  25.0738432  62.3632168
  39.3799677  20.3924601  63.9322867  39.1842460  20.9999336  63.3383170
  39.6034023  19.6992545  63.4514541  39.3834318  20.3802127  63.7738948
  37.7778207  17.2779339  64.0503736  38.5000859  17.4420497  63.5907542
  37.2986200  17.9989004  63.9443076  37.8141938  17.4077569  63.9669350
  45.7371715  13.6143138  69.4300421  44.8982815  13.6404417  69.1938684
  45.8076082  14.2613873  70.0105767  45.6240108  13.7139264  69.4809538
  35.4285824  19.6837411  73.1557876  35.9406921  19.9621665  72.5066635
  35.1422166  20.4226706  73.5220689  35.4620687  19.8339765  73.1147754
  44.1840993  10.5128515  64.1628037  44.8867346  10.3136263  63.6847995
  43.9185182   9.7404457  64.4696880  44.2487625  10.3691481  64.1373478
  49.6129239  18.8211125  66.7161663  49.5263213  18.9766551  67.5696441
  49.1579718  19.4649200  66.3421068  49.5332495  18.9386880  66.7868769
  32.5152730  14.1907603  63.4521612  32.6168867  14.9933765  63.7802588
  33.3108617  13.9894939  63.1544693  32.6480636  14.2793502  63.4556968
  33.3316462  14.3054782  71.1942734  33.1901954  13.4538722  71.3187242
  33.6157026  14.3483442  70.3704940  33.3524308  14.1854532  71.0910358
  43.4855055  16.1421872  65.3387222  43.2389769  16.0617623  66.1724011
  43.8140178  15.3575340  65.1449750  43.4976298  16.0148137  65.4334745
  45.7181189  19.1501606  75.3796385  45.7129227  18.2781423  75.3838811
  46.4242182  19.3489776  74.9065841  45.8226193  19.0505481  75.3103420
  39.4452082  18.8778590  74.7510205  39.5895458  19.4579798  74.1153315
  39.7927730  19.2554887  75.4560060  39.5179543  19.0199294  74.7609200
  41.6171999  18.0768759  72.5335337  40.8695313  18.2699773  72.1283615
  41.7713524  17.2513978  72.2959458  41.5294427  17.9833870  72.4380743
  38.5179837  27.0681362  71.6171232  38.6669401  26.5084278  70.9644636
  39.2979839  27.1473364  72.0003751  38.6553930  26.9966928  71.5768181
  48.8756476  22.2083485  59.8890503  48.4963285  21.4220623  59.8819792
  48.2122722  22.7570342  59.7462147  48.7214951  22.1728309  59.8671299
  41.0433137  27.2396005  72.8955723  40.9676809  26.5704816  73.4506511
  40.9722997  27.9413793  73.4096389  41.0213744  27.2440912  73.0532571
  41.8573776  11.9719309  73.4230740  42.3146390  12.7043284  73.5503533
  41.9330105  11.5485775  74.1817996  41.9364746  12.0176547  73.5531817
  46.3301102   5.1509185  67.2924583  46.4484670   5.6085648  66.5591886
  46.1563278   4.3454446  67.0060801  46.3220273   5.1002957  67.1425517
  41.7003384  25.7597004  63.7279329  42.4653276  25.4906648  63.4061993
  41.5981474  25.2747014  64.4449392  41.7984880  25.6486569  63.7859156
  39.7356154  13.9621413  70.2672564  38.9452229  13.7812873  70.5889900
  40.1316777  13.1848366  70.2502859  39.6773030  13.8208874  70.3125113
  44.2222045  22.7909188  55.7079278  44.9895030  22.8509313  55.2985130
  43.7753354  22.2189629  55.2235597  44.2695472  22.7145763  55.5756988
  45.1199840  21.5963843  67.9932010  44.4444842  21.3649076  68.4945397
  45.1292217  20.9885026  67.3674115  45.0218345  21.4722769  67.9748163
  42.2493984  16.4381672  74.7496063  42.1853126  17.2991629  74.6216200
  42.3891172  16.1213666  73.9491615  42.2609455  16.5181839  74.6124276
  47.1216575  24.4528976  60.2242188  47.2036412  25.2595962  59.9003639
  47.6066317  24.4724935  60.9482962  47.2053733  24.5749638  60.2829087
  40.9313078  19.1313812  68.8912266  40.5075327  19.3318311  68.1551285
  40.7557934  18.2842660  69.0036566  40.8423959  19.0362593  68.7985956
  40.4324772  30.6464325  71.3533724  40.9220702  29.9475114  71.1709388
  39.8609004  30.3488195  71.9409781  40.4209302  30.4990548  71.4134764
  36.2195523  19.6265863  64.3240239  36.3760142  19.5612666  65.1796231
  36.5596116  20.4014416  64.1118918  36.2928758  19.7315061  64.4194833
  42.7574668  19.0023747  63.1933602  43.2990213  18.4994128  63.6572223
  43.0721227  18.9488941  62.3823087  42.8839065  18.9203168  63.1417414
  46.6291775  23.2126394  80.3060514  47.4426641  22.9411543  80.4665647
  46.4686742  22.9133934  79.5020710  46.7261724  23.1281320  80.2105920
  40.9261118  24.3941098  60.4773630  40.9953938  23.5355637  60.6166630
  41.7049573  24.6112979  60.1492655  41.0513968  24.2993962  60.4490787
  43.9063937  13.8960051  73.2455903  44.1205907  13.2570966  72.6919256
  43.2897836  14.3405875  72.8163764  43.8469267  13.8670195  73.1006334
  45.3168605  26.8178800  64.6910123  44.9248397  26.5145515  63.9732990
  45.4721677  27.6547890  64.5015077  45.2822195  26.8962636  64.5566620
  32.7929785  16.8100814  64.6401006  33.1728750  17.2285359  63.9761273
  32.2185150  17.3914269  64.9469849  32.7641110  16.9578672  64.5877747
  46.0703025  15.5049116  74.1839210  45.2579707  15.1975007  74.2652382
  46.5292960  15.0248117  74.7481922  46.0183410  15.3885609  74.2793804
  45.4808280  23.3828788  64.6316154  45.1222935  23.5543431  65.4080186
  44.9946991  23.8441994  64.0744152  45.3566977  23.4767760  64.6641423
  43.2978666   7.0059987  68.2343245  42.4272224   6.9798708  68.1876555
  43.5519007   6.8337179  67.4169091  43.2072226   6.9770131  68.1063382
  40.2696645  19.0627954  57.1716388  40.5589170  19.8392836  57.4459963
  40.3568444  18.5516685  57.8730888  40.3250902  19.1019872  57.3158886
  40.3227806   9.0166215  69.6916716  39.8066295   8.3246407  69.8168295
  39.7621735   9.6836992  69.6379314  40.1634320   9.0129473  69.7022782
  42.3920040   9.5559175  71.5209568  42.0051793   9.5808207  72.3023098
  41.9052977   8.9900854  71.0684085  42.2632549   9.4754926  71.5697472
  46.6413019  24.2732684  75.5783355  47.2792740  23.7792880  75.2445811
  45.9987111  24.2010085  74.9935582  46.6407246  24.1891693  75.4425710
  48.3670019  16.1221830  70.1449270  47.9397627  16.0348179  69.3897370
  47.7296072  16.2299606  70.7304115  48.2099627  16.1254490  70.1194712
  46.6967276  24.9652493  72.2188712  47.4859654  24.6141557  72.3390793
  46.8710874  25.7788881  71.9565345  46.8387558  25.0338350  72.1976580
  36.4360586  18.3761218  69.2716500  35.5948593  18.2765093  69.4795394
  36.6450594  19.1456699  69.6230821  36.3425279  18.4753262  69.3543815
  33.9136153  15.9980755  67.1001251  33.5192851  16.0723767  66.3251361
  33.3576270  16.3838702  67.6509613  33.7738966  16.0662530  67.0668911
  45.5501100   8.9762049  66.7805130  45.7550693   8.9084357  67.6262127
  45.2227524   9.7820871  66.7126307  45.5316348   9.0847990  66.8964785
  40.2477251  16.3042618  68.5214098  39.9440389  15.7498606  69.1224506
  39.5456672  16.4834828  68.0342132  40.0993461  16.2487400  68.5383804
  39.3043348  13.6143137  63.0858800  39.5803083  12.8962050  62.6736367
  39.9042018  14.2128057  62.8779906  39.4336613  13.5963508  62.9939561
  38.3095602  23.5192338  73.2286196  38.2015957  23.5294400  74.0948254
  38.5191384  24.3447119  73.0391149  38.3245713  23.6433413  73.3290287
  48.8034788   9.5293814  66.2607895  48.1909101  10.0164216  66.6461627
  48.8998963   8.8537305  66.8045547  48.7272685   9.5012122  66.3986754
  42.8053869  11.2856655  61.3605395  43.2597615  11.4567215  62.0853239
  43.2793915  10.6724765  60.9603170  42.9422189  11.2207540  61.4079156
  36.3269394  20.7704981  70.6908133  35.7357327  21.4114479  70.6611148
  37.0890418  21.1942598  70.6639433  36.3517655  20.9280819  70.6823280
  36.7230017  11.9306978  71.3576151  37.1831499  12.0045908  72.0951275
  36.7686124  12.7288233  71.0075972  36.7980572  12.0601126  71.4148907
  52.4459816  20.6010750  71.6885412  52.5042939  21.0497399  72.4345388
  51.8126283  21.0109563  71.2515492  52.3611111  20.7284485  71.7337960
  46.0858910  26.2214292  68.1240158  45.8878599  26.7105107  67.4296369
  45.4646622  26.4255534  68.7024291  45.9646475  26.3230831  68.1063381
  40.1466889  17.9899189  62.4650402  40.8908934  18.3773465  62.7033352
  40.2927585  17.1456614  62.6290890  40.2777474  17.9229662  62.5244372
  42.0646464   9.7849448  67.4982263  41.2182509   9.9572256  67.3723613
  42.0617597   8.9798792  67.8348092  41.9393614   9.6910477  67.5293390
  43.1344765  13.5624662  68.3644321  42.6604719  13.0366424  68.8749632
  43.5062900  13.0154135  67.7959183  43.1194654  13.4040659  68.3559469
  49.3981495  18.6227038  69.7751102  49.1579718  17.7833453  69.7793528
  49.8773502  18.7027205  70.4991875  49.4333679  18.5108438  69.8825904
  45.0628264  14.4561217  61.4270075  44.5351283  14.5389961  60.7375784
  45.5223972  15.1979088  61.4234720  45.0530115  14.5781879  61.3244770
  51.3986682  15.4028495  67.7280361  51.1596452  15.3624329  66.8901146
  51.5620584  16.2499647  67.8546082  51.3876986  15.5220580  67.6233843
  48.0032712  19.7878445  73.6585406  48.7266911  19.3350971  73.4796426
  47.7382675  20.0683110  72.8757734  48.0713986  19.7629413  73.5164121
  36.8719581  14.3838618  70.3938285  36.2472651  14.3957010  69.7864238
  36.5365176  14.8598793  71.0429526  36.7305073  14.4557135  70.3994854
  37.0561329  12.7263737  56.4510970  36.7074134  13.3783462  56.9142520
  36.5757775  12.7120850  55.7234842  36.9331573  12.8206790  56.4122062
  33.5845256  22.4439078  71.8342050  33.0545181  21.7531517  71.8837024
  33.8570350  22.4349264  71.0054758  33.5469979  22.3406210  71.7189466
  44.6165347  23.0264781  60.5579732  45.3399546  23.4922894  60.4144305
  44.1765938  23.0938390  59.8077329  44.6581039  23.1048617  60.4264514
  43.7851502  19.8862323  71.8080421  43.1708495  19.3420373  72.1029056
  44.3018787  19.3726559  71.3286237  43.7707164  19.7298732  71.7804650
  43.0247799  20.9566593  69.5424720  42.5975407  20.3316312  69.1090155
  43.0172743  20.6741515  70.3683727  42.9606940  20.8219374  69.6004547
  36.1410326  15.9931766  72.6113154  36.3003813  15.2375090  73.0164876
  35.9603220  16.5422705  73.2653891  36.1375685  15.9625580  72.7675860
  44.0830629   8.1593002  73.1663943  43.5871190   8.3556676  72.4755510
  44.8399691   8.5585670  72.9952745  44.1217454   8.2470735  73.0384080
  41.3533509  11.8335347  69.7567254  41.3775996  11.2995460  69.0680034
  41.6044982  11.3252656  70.4192844  41.3943427  11.6796251  69.7531898
  28.8641099  19.1166842  69.1910398  28.7584548  19.0713687  68.3262482
  28.1141319  19.4620623  69.4724683  28.7376701  19.1607751  69.1047728
  37.6334831  10.5606166  69.1372998  37.6733203  11.0615372  69.8507706
  36.8084496  10.6516559  68.8678921  37.5174357  10.6487982  69.2023536
  39.8164444  20.1266906  77.2393293  38.9660074  20.2638620  77.3750938
  39.9792572  19.3930684  77.6840994  39.7148307  20.0381007  77.3248892
  39.0549194  17.0766675  71.4346897  38.2241124  17.2440493  71.2282145
  39.0000712  16.7002626  72.2195782  38.9238609  17.0456407  71.5195425
  37.4285238  15.3522267  61.9637015  37.5688199  15.8494731  62.6665656
  37.9267771  14.6508561  62.1051229  37.5226319  15.3224246  62.0888594
  37.4585461  16.2189378  59.2929592  38.0930540  16.8149803  59.2279053
  37.5411071  15.9192836  60.1075462  37.5642012  16.2630286  59.4032678
  50.4368026  18.7504855  72.1615956  51.0285867  19.3902106  72.1934154
  50.8727021  18.0527892  72.4508023  50.5886458  18.7423206  72.2096788
  39.0364443  12.1503353  59.2675034  39.3580284  11.6706436  58.6134296
  39.2991387  12.9603000  59.0765845  39.1230469  12.1993251  59.1430526
  42.2661416  23.1722228  72.7873850  41.7586507  23.7258075  73.2314480
  41.9688062  23.2330518  71.9692624  42.1466301  23.2628539  72.7322306
  44.4323598  11.5375547  71.6298513  44.8578670  11.0848074  71.0182039
  43.8180592  10.9835618  71.9063300  44.4052244  11.3889524  71.5803538
  33.9638448  18.4157219  62.5619138  34.4730678  19.0121726  62.9430443
  34.4372721  18.1483192  61.8795557  34.1081824  18.4643034  62.5173660
  44.8769197  27.0885486  60.7177793  44.1598506  26.9146348  60.2525031
  45.5275934  26.8538058  60.1853279  44.8671047  27.0281278  60.5707011
  42.8717821   8.0090647  65.0389090  42.2286139   7.8588294  65.6074228
  42.5317228   7.7632992  64.2738194  42.7262899   7.9502770  65.0092105
  47.4617168  15.9650074  64.4619098  46.7908358  16.5079776  64.3332164
  48.1556918  16.4344929  64.2200793  47.4646035  16.1148345  64.4074626
  41.5103901  28.1046786  69.6930857  41.2869556  27.3465615  70.0614883
  41.0213745  28.1344807  68.9711296  41.4047350  27.9969011  69.6407598
  47.6245295  12.4205958  67.3709472  47.9772905  11.9935681  68.0455270
  46.7660097  12.3356801  67.5010548  47.5494740  12.3450698  67.4904482
  36.3228980  15.0513477  65.4292318  35.6040969  15.4677610  65.6965182
  36.6941342  15.6167716  64.8783956  36.2720912  15.1962759  65.3875125
  45.6228561  15.6841326  71.3194314  45.6026488  15.5024621  72.1729093
  45.6707762  16.5553345  71.2953897  45.6263202  15.7857865  71.4417609
  43.5674891  22.2728518  77.2442790  43.5270746  21.6278195  76.6587946
  44.3798209  22.2165136  77.5568202  43.6818044  22.1687485  77.2039740
  40.1582358  28.3247244  67.1467941  39.7442757  27.6621374  66.7571783
  40.8429733  28.4725103  66.6263635  40.1980730  28.2487902  67.0124438
  43.5247653  27.4837329  67.8991558  43.1263936  27.5939600  67.1312378
  42.9098872  27.6919396  68.4818118  43.3746542  27.5310897  67.8722857
  42.0975555  14.0911477  60.7665698  41.5040394  14.4128474  60.2150265
  42.1350832  13.2452573  60.5586804  42.0149944  14.0135806  60.6548469
  49.0569355   7.5424370  68.2993784  48.5500220   6.8353509  68.2314962
  49.8536789   7.2117558  68.4294861  49.0996594   7.3897521  68.3092779
  44.9733371  14.0490982  64.1967448  44.7447064  14.0723683  63.3545806
  45.2331447  13.2248449  64.3162458  44.9779559  13.9307062  64.0892646
  39.2552600  15.9025455  73.7992548  38.7431503  15.2946638  74.1577579
  39.0832096  16.6182047  74.2666524  39.1542237  15.9188754  73.9208772
  38.0278134  12.5867528  65.4921643  38.5035500  12.9484608  64.8571825
  37.5266733  13.2423996  65.7721786  38.0243493  12.7361717  65.4398384
  51.2589495  22.0589296  61.2834648  51.6423101  22.8080652  61.5132746
  50.4633609  22.3055116  61.0246638  51.1983277  22.2058990  61.2792222
  43.1321670  13.8249699  76.2394804  43.6893100  13.5963509  75.6073269
  42.8082735  14.5855365  75.9630016  43.1668080  13.9033536  76.1051301
  31.0020379  17.2509896  71.7083400  30.4547098  16.5810541  71.8264268
  31.7912757  16.8839744  71.7726867  31.0372562  17.0974882  71.7352100
  40.8504787  16.9117353  77.2046811  41.6016114  17.2269030  77.5186365
  41.0427364  16.7096524  76.3780732  40.9896201  16.9284735  77.1290206
  40.0704787  14.7308728  58.8595027  40.4503752  14.7488357  58.0746142
  39.3297383  15.1762717  58.7385875  40.0173625  14.7990503  58.7258596
  47.6990077  13.0390919  64.4470606  47.6984304  12.8839576  65.3054882
  47.4946257  13.8853906  64.3911992  47.6689855  13.1411540  64.5658546
  29.7607348  16.4630704  68.8629423  29.5829109  16.0107312  69.5884338
  29.4726370  17.2656865  69.0467900  29.6920301  16.5153261  68.9972926
  45.4230929  17.7188421  68.1006813  45.9184595  17.0011416  68.0610833
  44.6130705  17.4159219  67.9861300  45.3774823  17.5686067  68.0780539
  40.8689541  21.5686234  60.2503817  40.0600864  21.2452908  60.2037127
  41.3764450  20.8619456  60.1832066  40.8239208  21.4167550  60.2334112
  31.4979818  18.9958427  65.9751182  30.6325338  18.9844118  65.8633953
  31.5978634  18.8088650  66.8222321  31.3853985  18.9664488  66.0840126
  47.4882748  20.4692108  70.7883942  47.9137820  19.9466530  70.2354367
  47.1239668  21.0672946  70.2672565  47.4969351  20.4802335  70.6292951
  37.1236828  28.7656326  69.5481287  37.4383387  29.5792714  69.5559069
  37.5330241  28.3806545  70.2163446  37.2304926  28.8285028  69.6485379
  44.0761348  24.1826373  67.1185099  44.5472526  24.8966635  67.2875084
  44.4121526  23.5825123  67.6544969  44.1956463  24.1997837  67.2217475
  46.1638332  25.7927686  79.2977171  46.2735298  25.0036247  79.6533918
  46.4929229  25.7033622  78.4951509  46.2290738  25.6633539  79.2319562
  44.7135294  23.9744307  73.8812792  44.1656240  23.3502190  73.6132857
  45.1748323  24.1638579  73.1656871  44.7002503  23.9103357  73.7363223
  44.0663198   5.8784169  70.6724287  43.2609162   5.7681899  70.9892126
  43.9369933   5.9796625  69.8154153  43.9283331   5.8767839  70.5932328
  47.5229158  12.0429661  71.2663984  46.9392147  12.5438868  70.8541552
  47.8433452  11.5359217  70.6328307  47.4842334  12.0421496  71.1122491
  40.0623957  10.9570256  61.5422659  40.8839652  11.1268569  61.3004354
  39.5993608  11.1117517  60.8188957  40.1155120  11.0051989  61.3994303
  34.4649848  22.7129434  69.1959896  35.0694706  22.6725268  68.5673716
  34.2577161  23.5600586  69.2263951  34.5238745  22.8317437  69.1076012
  44.2793620  24.9795379  70.4122133  45.0991994  24.8358346  70.6738428
  43.9987698  25.6041578  70.9538571  44.3590364  25.0505732  70.5310072
  29.7001130  21.6964052  69.0658819  29.6025408  20.8860323  69.3748875
  30.4830000  21.6755845  68.6805087  29.8017267  21.5731142  69.0545682
  60.7507271  32.6360231  63.3765009  60.7201275  33.4904868  63.5483279
  61.3488619  32.3355524  63.9351153  60.8344429  32.7176728  63.4839812
  53.9506956  31.7235882  68.1317940  53.0944851  31.8844380  68.1827057
  53.9974609  30.8527946  68.1523001  53.8306067  31.6186684  68.1424006
  48.3348095  41.2598600  63.8955171  47.5830995  40.8814138  63.6671216
  48.7834107  41.2917034  63.1473982  48.2897762  41.2084207  63.7512674
  57.2600672  37.9922408  77.7378396  57.9667439  37.4974439  77.8665330
  57.4488608  38.4331489  77.0081054  57.3928578  37.9840758  77.6487441
  53.7873055  41.6823970  59.3240718  53.4524424  42.3600891  58.8884941
  54.2999926  41.2929281  58.7357590  53.8138636  41.7248548  59.1727510
  53.3277346  43.6338238  65.2651830  53.7116726  44.2025137  64.7256605
  53.2636488  42.9087749  64.7857646  53.3750774  43.6113702  65.1145693
  56.7958777  33.7827926  70.7749591  57.3414737  34.4613013  70.8343561
  56.7375653  33.6415387  69.9151173  56.8674691  33.8619928  70.6561652
  49.9132851  41.2716992  66.1617944  50.0143214  40.4617346  66.4715072
  49.3174597  41.1773939  65.5317622  49.8405390  41.1382020  66.1144182
  58.5723845  35.2112533  61.6483319  58.4563371  35.9620219  62.0775457
  59.3679732  34.9536487  61.8979406  58.6728435  35.2847380  61.7487411
  49.7533591  46.1894581  67.5632800  50.3971046  46.6307745  67.9528958
  50.0789847  45.3848008  67.4763059  49.8965420  46.1359776  67.6078277
  43.1097896  37.2937279  65.7870278  42.8748080  36.4604931  65.6802546
  43.2483536  37.5741944  64.9731479  43.0953558  37.2120782  65.6512633
  45.4087983  29.4623009  68.6854585  44.7893015  28.8715657  68.5164600
  45.3071847  30.0534445  68.0518908  45.3025659  29.4627092  68.5659575
  50.4554171  39.2006556  62.9352662  50.7770012  39.7411764  62.3313970
  51.1026267  38.6303328  63.0674951  50.5980226  39.1965731  62.8659697
  52.5055879  31.2022551  63.0187048  53.2036043  31.3810679  63.5108512
  52.8208211  30.6792891  62.3957438  52.6551216  31.1516323  62.9989059
  45.1357116  33.0075291  70.9298154  45.0115813  33.5937737  71.5647973
  45.7875401  32.5135487  71.2310429  45.2130766  33.0214096  71.0684084
  52.6943814  37.5892996  63.0066840  53.1337450  36.9810097  63.4521613
  52.5448477  37.2100370  62.2352305  52.7365280  37.4431467  62.9586007
  50.1615457  36.1837008  70.2085665  50.8064460  35.6909451  69.8896614
  50.4017234  36.3261795  71.0351744  50.2926042  36.1314450  70.2835199
  52.7001549  39.0291914  69.8592558  52.9824791  38.2343320  69.6379314
  53.4287709  39.5072501  69.8797619  52.8491112  38.9826511  69.8295573
  50.6782742  26.5714948  67.1008323  50.3486072  27.0226091  66.4312022
  50.0027744  26.4931111  67.6481329  50.5293179  26.6266083  67.0831546
  56.2953151  35.9420177  59.9597609  56.2104446  36.7981144  60.1047178
  56.7837534  35.6664502  60.6279768  56.3542048  36.0277499  60.0799691
  57.8859150  22.5600471  65.3457934  57.5712591  23.2503949  65.7778356
  57.3686092  22.5045253  64.6443434  57.7623621  22.6535359  65.3054883
  57.2271584  32.5604972  61.4595344  56.6983055  32.7764605  62.1192650
  57.7496604  33.2541110  61.3796314  57.2260037  32.6948109  61.5450943
  62.6819637  38.1351276  66.8328389  61.8517340  38.3461920  66.9961805
  62.6328889  37.3088331  66.5570672  62.5526372  38.0440882  66.8165754
  49.1171192  36.4568188  60.2602812  48.5328407  36.9618220  60.6668676
  48.7141287  36.2310575  59.5199404  48.9710496  36.4976437  60.2107837
  44.6715220  42.1722950  67.0626484  44.1882799  42.8973439  67.0386067
  45.4838539  42.4699080  67.1736641  44.7205968  42.3225303  67.0753763
  50.7429374  40.9655130  69.6676298  50.2256316  40.6062545  69.0637606
  51.4403766  40.4417305  69.6782364  50.7694956  40.8352818  69.5806557
  54.3992966  41.4149944  75.6292471  54.4876312  41.2276085  76.4770682
  54.8282679  40.7687374  75.2297318  54.4755069  41.2912952  75.6964223
  51.9663426  40.6981104  74.6110133  51.4034261  40.2853714  75.1349795
  52.7284450  40.6234010  75.0303277  51.9957875  40.6258505  74.7503134
  53.5748406  32.7033841  58.7371733  53.8144410  32.9111824  57.9247076
  53.8964247  31.8991349  58.8460677  53.6585564  32.6147942  58.6332286
  48.8838696  24.6327236  62.5831271  49.6384664  25.0005553  62.3448321
  48.7066231  25.0066791  63.3510450  48.9693175  24.7425424  62.6616159
  47.5259418  42.6879125  67.2146764  48.2279997  42.1731115  67.2719520
  47.4456901  43.0153277  68.0193639  47.6183178  42.6593352  67.3419556
  62.1773595  30.7821677  70.6278810  61.3402016  30.8523864  70.8626404
  62.1461826  30.7846172  69.7553112  62.0491878  30.7931904  70.5338358
  48.5738324  32.9254712  76.3427179  48.7458828  32.8160607  77.1912460
  49.1107682  33.5709118  76.1058371  48.6783328  33.0046714  76.4332275
  47.2395761  27.0397555  59.2809384  47.0571334  27.2569436  58.4550376
  48.1021374  27.1536568  59.3367998  47.3400351  27.0887453  59.1663871
  46.8510193  38.8785477  66.7232372  47.6899092  39.1108410  66.7706133
  46.8821962  38.0089789  66.6539407  46.9791911  38.7842424  66.7197016
  47.4762896  39.2986353  71.0245677  48.0161121  39.1557484  71.6949049
  46.7932842  39.6983103  71.3929703  47.4555050  39.3366024  71.1780099
  52.9195480  24.0423966  62.3158408  53.6481641  23.8639921  61.8696564
  53.0090373  24.8842046  62.5265586  53.0402142  24.1407844  62.2811925
  56.9003781  34.9777353  66.2190701  57.6561296  35.4108868  66.2579610
  57.0066105  34.3282123  66.7925338  57.0273952  34.9454837  66.3088727
  59.9383952  38.8050631  66.9693104  59.5019184  38.8087373  67.7252076
  59.6046868  39.4856130  66.5372682  59.8246572  38.9063086  67.0173937
  54.5113026  40.8458963  78.2936255  55.2953442  40.9589811  78.6591997
  54.3109620  40.0200100  78.4894941  54.5979051  40.7405683  78.3770641
  42.8800041  35.5186643  71.1780099  42.6138456  34.7025760  71.3371089
  42.8938605  35.5639799  70.3075614  42.8424763  35.4043548  71.0733581
  59.8581435  25.8464458  69.2122532  60.5007343  25.9162563  69.7984448
  60.1104456  25.1793681  68.7102074  59.9903567  25.7590807  69.2249812
  46.7857788  30.3171728  57.7931857  46.0715965  30.0309907  58.2054289
  47.2701757  30.6568354  58.4338244  46.7517151  30.3253378  57.9487492
  47.6298648  29.0565022  73.8247106  46.9370444  28.5862001  74.0707838
  48.2458975  28.8303326  74.3988814  47.6183177  28.9532154  73.9456259
  54.6683419  42.7569065  71.9402710  53.8698665  42.5168565  72.1976579
  55.1169431  42.8083458  72.6869758  54.6158030  42.7291457  72.0887635
  63.0728298  35.5231550  65.8612742  63.7344732  34.9622219  65.7608650
  62.4319710  35.0283581  66.1865433  63.0757166  35.3667959  65.8945082
  53.9605106  38.8201682  58.1693665  54.3756255  38.4886706  57.4778161
  53.1297036  38.5870584  58.0413802  53.8993115  38.7372938  58.0484512
  43.2893455  36.3045423  68.4591843  43.1069028  36.2792309  67.6064135
  44.0243124  36.7744361  68.4980752  43.3707519  36.3706785  68.3389761
  59.3593129  36.5396933  65.6024730  59.5948718  36.6842132  64.7751581
  59.5082693  37.3039341  65.9956244  59.4158932  36.6735987  65.5388334
  61.1883586  35.3798599  63.4394334  61.5191803  35.9126239  62.8334429
  61.7616674  35.4337487  64.0956285  61.3217265  35.4668168  63.4472116
  53.7284156  36.5029510  79.8322899  52.9357137  36.8173022  80.0175518
  53.8433083  36.7180979  78.9943683  53.6279566  36.5813347  79.7361233
  56.4015475  33.2263501  64.1217914  56.4962329  33.9652796  64.5757540
  55.7774318  32.7980977  64.5552479  56.3224505  33.2724822  64.2526062
  54.6567949  36.4049714  74.7708195  55.2306810  35.7676958  74.9256759
  54.5782752  36.4053797  73.9017853  54.7301184  36.3114826  74.6654606
  43.2564365  33.1838924  68.6090910  43.8337868  33.0475374  69.2483155
  42.5578427  32.7274708  68.8636494  43.2385387  33.0961190  68.7413199
  56.6538496  35.0712241  57.3554866  56.5718659  35.1414428  58.2209853
  57.2918217  35.6341985  57.1638607  56.7358334  35.1651212  57.4544816
  50.0131667  34.8372979  66.8229393  49.7550912  34.0044714  66.7960692
  50.0680150  35.0630592  65.9821893  49.9831445  34.7470750  66.6949529
  55.0932717  26.9401430  66.9233485  54.3889044  26.4510615  67.0817405
  55.1417692  26.9523904  66.0521930  54.9962769  26.8691078  66.8172825
  48.9866379  32.3910742  67.3094287  48.4115971  32.5502910  67.9458248
  48.6102056  31.7546151  66.8462738  48.8469192  32.3208555  67.3348846
  52.6539668  30.8634091  72.1686666  52.2654101  30.4388309  71.5138857
  51.9894366  31.1116241  72.6763693  52.4986596  30.8372812  72.1474534
  62.2962937  30.6209096  64.9434496  62.0399502  29.8089037  64.7532379
  63.1392251  30.6286663  64.7164683  62.3828963  30.5021093  64.8819313
  38.7323198  32.0350816  65.3238728  38.8183450  31.6582685  66.1052258
  39.3598996  31.6611262  64.8458686  38.8379749  31.9236299  65.3684205
  56.4766030  24.5608720  69.6810650  56.8576541  23.8786891  70.0678524
  55.6729314  24.2718322  69.4986315  56.4142491  24.4175768  69.7114706
  53.7578606  35.0932696  60.3663473  54.5719245  35.3847588  60.2546244
  53.6937748  34.4392558  59.7921766  53.8681345  35.0397890  60.2652310
  59.9788097  37.7758692  74.7793049  59.7426734  36.9446756  74.6605109
  60.6231325  37.7244299  75.3647893  60.0382767  37.6456380  74.8478942
  49.6286515  38.5654213  65.4935785  50.2660462  38.3265961  66.0387578
  50.0541586  38.7691372  64.7588946  49.7862681  38.5605223  65.4652942
  44.3199157  40.8042550  69.3770089  44.3603302  41.0757401  68.5489868
  44.8793681  41.3284458  69.7927877  44.4082503  40.9218305  69.3161977
  50.2689330  33.7856503  59.8310674  50.6534482  33.5664210  60.5827219
  50.0200950  34.6119448  59.9611751  50.2891402  33.8754649  59.9611751
  50.4357870  27.0662918  79.5473259  50.1211311  27.8362481  79.2842821
  50.1147803  26.5033174  78.9625486  50.3416789  27.0973187  79.4214608
  61.0024517  37.5603140  70.8421343  60.6970334  38.2931197  71.2034659
  60.2830733  37.1541070  70.5614129  60.8511859  37.6084873  70.8534480
  52.0107987  39.0426636  67.1729571  52.0846995  38.8801807  68.0271421
  52.8277493  39.2316825  66.9290053  52.1424345  39.0463378  67.2627597
  66.7026309  34.1996141  70.1689687  66.6350810  34.2192100  69.2992274
  66.6881972  35.0426468  70.3945358  66.6905066  34.3269876  70.0742164
  45.7713743  39.3884498  64.2024015  44.9451861  39.6346236  64.0758293
  45.8325734  39.3096579  65.0686073  45.6587910  39.4129447  64.3112959
  47.9889767  25.4553439  65.1619455  47.1212192  25.5276039  65.2277064
  48.2764971  26.2575518  65.3507430  47.9029515  25.5847587  65.1994221
  57.1122656  25.6031299  73.4930777  57.8576248  25.4141109  73.0794202
  56.6959960  26.1289537  72.9344633  57.1607630  25.6533444  73.3495350
  50.5512572  42.0061379  61.9043045  50.8410871  41.6150360  61.1802271
  51.2816053  42.1878084  62.3448320  50.7019456  41.9755192  61.8625852
  64.4884927  32.9740527  68.4436282  65.0392848  32.3408596  68.6833374
  64.4729042  33.5055920  69.1351786  64.5670123  32.9589475  68.5815140
  51.1407317  36.8079125  72.9896175  50.6419011  37.5194892  73.0681064
  51.9507542  37.1279791  72.9514337  51.1863424  36.9605973  72.9952744
  48.4918488  43.9828761  64.9703194  48.2718783  43.6926116  65.7629861
  48.2713010  43.3243716  64.4421107  48.4266082  43.8428469  65.0092103
  47.4035435  36.0702078  67.2358896  47.1148684  35.4439549  67.7704623
  48.2718783  36.0122365  67.3023576  47.4895687  35.9689622  67.3249851
  58.1913333  31.2136861  67.5540878  57.8478099  30.4927196  67.9048128
  58.2906375  31.0050712  66.7119236  58.1555376  31.0761064  67.4812558
  50.6586444  45.3558151  63.7533887  51.3110502  44.8234593  63.9824913
  49.9612052  45.0026803  64.1401761  50.6517162  45.2247674  63.8446054
  47.6067708  37.7097329  63.1601261  48.3613676  38.0910368  63.3736724
  47.0138321  38.1608472  63.6147958  47.6304422  37.8326156  63.2584139
  58.6526362  37.6762565  63.0964866  59.2184395  38.3355775  63.0123409
  58.0054265  38.0212263  63.5681268  58.6405118  37.8244506  63.1537622
  50.0674375  29.6660169  78.2858473  49.2574151  29.9717949  78.1748316
  50.5449062  30.3865751  78.4011057  50.0177854  29.8174770  78.2865544
  48.9265935  38.8805890  68.5341376  48.4046689  39.0206182  69.2193241
  49.3139955  38.1216554  68.7243494  48.9069636  38.7891414  68.6642453
  45.9157119  28.9311699  62.6036331  45.6281915  28.5612969  61.8668278
  46.6027587  29.4006554  62.3420036  45.9746016  28.9458668  62.4551407
  55.1232940  40.6201349  62.5201945  54.8819616  39.8869210  62.1129010
  55.3034273  41.1688206  61.8668279  55.1140564  40.5923740  62.3632168
  50.3532261  35.9109909  63.9322867  50.1575043  36.5184644  63.3383170
  50.5766606  35.2177853  63.4514541  50.3566902  35.8987435  63.7738948
  48.7510791  32.7964647  64.0503736  49.4733443  32.9605805  63.5907542
  48.2718783  33.5174312  63.9443076  48.7874521  32.9262877  63.9669350
  56.7104298  29.1328446  69.4300421  55.8715399  29.1589725  69.1938684
  56.7808666  29.7799181  70.0105767  56.5972692  29.2324572  69.4809538
  46.4018407  35.2022719  73.1557876  46.9139504  35.4806973  72.5066635
  46.1154750  35.9412013  73.5220689  46.4353271  35.3525073  73.1147754
  55.1573577  26.0313823  64.1628037  55.8599929  25.8321571  63.6847995
  54.8917765  25.2589765  64.4696880  55.2220209  25.8876789  64.1373478
  60.5861822  34.3396433  66.7161663  60.4995797  34.4951859  67.5696441
  60.1312302  34.9834508  66.3421068  60.5065079  34.4572188  66.7868769
  43.4885314  29.7092911  63.4521612  43.5901450  30.5119073  63.7802588
  44.2841200  29.5080247  63.1544693  43.6213219  29.7978810  63.4556968
  49.9202133  27.2949108  73.2158917  49.7285330  27.3104242  74.0658341
  50.7700729  27.4912782  73.1925572  50.0177855  27.3263459  73.3382212
  44.3049046  29.8240089  71.1942734  44.1634538  28.9724030  71.3187242
  44.5889609  29.8668750  70.3704940  44.3256892  29.7039839  71.0910358
  54.4587638  31.6607180  65.3387222  54.2122352  31.5802931  66.1724011
  54.7872761  30.8760647  65.1449750  54.4708882  31.5333445  65.4334745
  58.3535687  38.3690539  69.1274003  58.2150046  39.0671585  69.6322746
  57.5735685  38.2139195  68.7710185  58.2178914  38.4490706  69.1500277
  56.6913772  34.6686914  75.3796385  56.6861811  33.7966731  75.3838811
  57.3974766  34.8675083  74.9065841  56.7958776  34.5690789  75.3103420
  50.4184665  34.3963898  74.7510205  50.5628041  34.9765106  74.1153315
  50.7660314  34.7740195  75.4560060  50.4912127  34.5384602  74.7609200
  52.5904583  33.5954067  72.5335337  51.8427897  33.7885081  72.1283615
  52.7446108  32.7699286  72.2959458  52.5027010  33.5019178  72.4380743
  49.4912420  42.5866670  71.6171232  49.6401984  42.0269586  70.9644636
  50.2712423  42.6658672  72.0003751  49.6286514  42.5152236  71.5768181
  59.8489060  37.7268793  59.8890503  59.4695869  36.9405931  59.8819792
  59.1855305  38.2755650  59.7462147  59.6947535  37.6913617  59.8671299
  52.0165721  42.7581313  72.8955723  51.9409392  42.0890123  73.4506511
  51.9455580  43.4599101  73.4096389  51.9946328  42.7626220  73.0532571
  52.8306360  27.4904617  73.4230740  53.2878974  28.2228592  73.5503533
  52.9062689  27.0671083  74.1817996  52.9097330  27.5361855  73.5531817
  45.0739351  27.7370437  74.5120184  44.5381541  27.1250795  74.8280951
  45.1357116  28.3118573  75.1653851  45.0034984  27.7317365  74.6555611
  57.3033686  20.6694493  67.2924583  57.4217254  21.1270956  66.5591886
  57.1295861  19.8639754  67.0060801  57.2952857  20.6188265  67.1425517
  52.6735968  41.2782312  63.7279329  53.4385859  41.0091956  63.4061993
  52.5714058  40.7932322  64.4449392  52.7717463  41.1671876  63.7859156
  50.7088738  29.4806721  70.2672564  49.9184813  29.2998181  70.5889900
  51.1049361  28.7033674  70.2502859  50.6505614  29.3394182  70.3125113
  55.1954629  38.3094496  55.7079278  55.9627614  38.3694621  55.2985130
  54.7485937  37.7374937  55.2235597  55.2428056  38.2331071  55.5756988
  56.0932424  37.1149151  67.9932010  55.4177426  36.8834384  68.4945397
  56.1024800  36.5070334  67.3674115  55.9950929  36.9908077  67.9748163
  53.2226568  31.9566980  74.7496063  53.1585709  32.8176937  74.6216200
  53.3623756  31.6398974  73.9491615  53.2342038  32.0367147  74.6124276
  58.0949159  39.9714284  60.2242188  58.1768996  40.7781270  59.9003639
  58.5798901  39.9910243  60.9482962  58.1786316  40.0934946  60.2829087
  51.9045662  34.6499120  68.8912266  51.4807911  34.8503619  68.1551285
  51.7290517  33.8027968  69.0036566  51.8156543  34.5547901  68.7985956
  51.4057355  46.1649633  71.3533724  51.8953286  45.4660422  71.1709388
  50.8341588  45.8673503  71.9409781  51.3941885  46.0175856  71.4134764
  47.1928107  35.1451171  64.3240239  47.3492726  35.0797974  65.1796231
  47.5328700  35.9199724  64.1118918  47.2661342  35.2500369  64.4194833
  53.7307251  34.5209055  63.1933602  54.2722797  34.0179436  63.6572223
  54.0453811  34.4674249  62.3823087  53.8571649  34.4388476  63.1417414
  57.6024359  38.7311702  80.3060514  58.4159224  38.4596851  80.4665647
  57.4419325  38.4319242  79.5020710  57.6994307  38.6466628  80.2105920
  51.8993701  39.9126406  60.4773630  51.9686522  39.0540945  60.6166630
  52.6782156  40.1298287  60.1492655  52.0246551  39.8179270  60.4490787
  54.8796521  29.4145359  73.2455903  55.0938490  28.7756273  72.6919256
  54.2630420  29.8591183  72.8163764  54.8201850  29.3855503  73.1006334
  56.2901189  42.3364108  64.6910123  55.8980981  42.0330823  63.9732990
  56.4454261  43.1733197  64.5015077  56.2554779  42.4147944  64.5566620
  43.7662368  32.3286122  64.6401006  44.1461333  32.7470667  63.9761273
  43.1917733  32.9099577  64.9469849  43.7373693  32.4763980  64.5877747
  57.0435609  31.0234424  74.1839210  56.2312291  30.7160315  74.2652382
  57.5025543  30.5433425  74.7481922  56.9915994  30.9070917  74.2793804
  56.4540864  38.9014096  64.6316154  56.0955518  39.0728739  65.4080186
  55.9679574  39.3627302  64.0744152  56.3299560  38.9953067  64.6641423
  54.2711250  22.5245295  68.2343245  53.4004807  22.4984016  68.1876555
  54.5251591  22.3522487  67.4169091  54.1804810  22.4955439  68.1063382
  51.2429229  34.5813262  57.1716388  51.5321754  35.3578144  57.4459963
  51.3301028  34.0701993  57.8730888  51.2983485  34.6205180  57.3158886
  54.1389116  32.4294496  78.9667912  54.6088748  33.0536612  79.3535786
  54.1850997  31.7611471  79.5261127  54.2156992  32.4229176  79.1067983
  51.2960390  24.5351523  69.6916716  50.7798879  23.8431715  69.8168295
  50.7354319  25.2022300  69.6379314  51.1366903  24.5314781  69.7022782
  53.3652623  25.0744483  71.5209568  52.9784377  25.0993515  72.3023098
  52.8785561  24.5086162  71.0684085  53.2365132  24.9940234  71.5697472
  57.6145603  39.7917992  75.5783355  58.2525323  39.2978188  75.2445811
  56.9719694  39.7195393  74.9935582  57.6139829  39.7077001  75.4425710
  59.3402603  31.6407138  70.1449270  58.9130211  31.5533487  69.3897370
  58.7028656  31.7484914  70.7304115  59.1832210  31.6439798  70.1194712
  53.0309765  21.9611469  73.8119828  53.6602883  22.4971769  73.5340899
  53.1995628  21.8688828  74.6633394  53.1487560  22.0272831  73.8968356
  52.8323680  26.7482664  76.0846240  53.6597109  26.4767812  76.1404854
  52.8531526  27.5443505  76.4410058  52.9576530  26.8262418  76.1461423
  57.6699859  40.4837801  72.2188712  58.4592238  40.1326865  72.3390793
  57.8443457  41.2974189  71.9565345  57.8120141  40.5523658  72.1976580
  47.4093170  33.8946526  69.2716500  46.5681176  33.7950401  69.4795394
  47.6183178  34.6642007  69.6230821  47.3157862  33.9938570  69.3543815
  44.8868737  31.5166063  67.1001251  44.4925435  31.5909075  66.3251361
  44.3308854  31.9024010  67.6509613  44.7471549  31.5847838  67.0668911
  56.5233684  24.4947357  66.7805130  56.7283277  24.4269665  67.6262127
  56.1960108  25.3006179  66.7126307  56.5048932  24.6033298  66.8964785
  51.2209835  31.8227926  68.5214098  50.9172972  31.2683914  69.1224506
  50.5189256  32.0020136  68.0342132  51.0726045  31.7672708  68.5383804
  50.2775932  29.1328445  63.0858800  50.5535666  28.4147358  62.6736367
  50.8774601  29.7313365  62.8779906  50.4069197  29.1148816  62.9939561
  49.2828186  39.0377646  73.2286196  49.1748541  39.0479708  74.0948254
  49.4923967  39.8632427  73.0391149  49.2978297  39.1618721  73.3290287
  59.7767371  25.0479122  66.2607895  59.1641685  25.5349524  66.6461627
  59.8731546  24.3722612  66.8045547  59.7005269  25.0197430  66.3986754
  53.7786452  26.8041963  61.3605395  54.2330199  26.9752523  62.0853239
  54.2526498  26.1910073  60.9603170  53.9154773  26.7392848  61.4079156
  47.3001978  36.2890289  70.6908133  46.7089911  36.9299787  70.6611148
  48.0623001  36.7127906  70.6639433  47.3250238  36.4466127  70.6823280
  47.6962601  27.4492286  71.3576151  48.1564082  27.5231216  72.0951275
  47.7418707  28.2473540  71.0075972  47.7713156  27.5786433  71.4148907
  49.3445950  28.1158981  75.9248178  48.9531515  27.4692328  76.3603956
  49.5131813  28.7070417  76.5442433  49.3116861  28.1073249  76.0810884
  63.4192399  36.1196058  71.6885412  63.4775523  36.5682707  72.4345388
  62.7858867  36.5294871  71.2515492  63.3343694  36.2469793  71.7337960
  57.0591494  41.7399600  68.1240158  56.8611183  42.2290415  67.4296369
  56.4379205  41.9440842  68.7024291  56.9379058  41.8416138  68.1063381
  51.1199472  33.5084497  62.4650402  51.8641517  33.8958773  62.7033352
  51.2660169  32.6641922  62.6290890  51.2510057  33.4414970  62.5244372
  53.0379048  25.3034756  67.4982263  52.1915093  25.4757564  67.3723613
  53.0350180  24.4984100  67.8348092  52.9126198  25.2095785  67.5293390
  54.1077348  29.0809970  68.3644321  53.6337302  28.5551732  68.8749632
  54.4795484  28.5339443  67.7959183  54.0927237  28.9225967  68.3559469
  44.4850378  31.0781477  73.7327867  45.3475991  30.9777186  73.6465197
  44.1542161  30.4976186  73.1713439  44.5635575  30.9773104  73.6373273
  60.3714079  34.1412346  69.7751102  60.1312302  33.3018761  69.7793528
  60.8506086  34.2212513  70.4991875  60.4066262  34.0293746  69.8825904
  56.0360848  29.9746525  61.4270075  55.5083867  30.0575269  60.7375784
  56.4956556  30.7164396  61.4234720  56.0262698  30.0967187  61.3244770
  62.3719266  30.9213803  67.7280361  62.1329036  30.8809637  66.8901146
  62.5353167  31.7684955  67.8546082  62.3609569  31.0405888  67.6233843
  58.9765296  35.3063753  73.6585406  59.6999495  34.8536279  73.4796426
  58.7115258  35.5868418  72.8757734  59.0446569  35.2814721  73.5164121
  47.8452164  29.9023926  70.3938285  47.2205235  29.9142318  69.7864238
  47.5097759  30.3784101  71.0429526  47.7037656  29.9742443  70.3994854
  48.0293913  28.2449045  56.4510970  47.6806717  28.8968770  56.9142520
  47.5490359  28.2306158  55.7234842  47.9064157  28.3392098  56.4122062
  44.5577840  37.9624386  71.8342050  44.0277764  37.2716825  71.8837024
  44.8302933  37.9534572  71.0054758  44.5202562  37.8591518  71.7189466
  55.5897930  38.5450089  60.5579732  56.3132129  39.0108202  60.4144305
  55.1498521  38.6123698  59.8077329  55.6313623  38.6233925  60.4264514
  54.7584085  35.4047631  71.8080421  54.1441079  34.8605681  72.1029056
  55.2751370  34.8911867  71.3286237  54.7439748  35.2484040  71.7804650
  53.9980383  36.4751901  69.5424720  53.5707991  35.8501619  69.1090155
  53.9905327  36.1926823  70.3683727  53.9339524  36.3404681  69.6004547
  47.1142910  31.5117074  72.6113154  47.2736396  30.7560398  73.0164876
  46.9335803  32.0608013  73.2653891  47.1108269  31.4810888  72.7675860
  55.0563213  23.6778309  73.1663943  54.5603774  23.8741984  72.4755510
  55.8132275  24.0770978  72.9952745  55.0950037  23.7656043  73.0384080
  52.3266092  27.3520655  69.7567254  52.3508579  26.8180768  69.0680034
  52.5777566  26.8437964  70.4192844  52.3676011  27.1981559  69.7531898
  39.8373682  34.6352150  69.1910398  39.7317131  34.5898995  68.3262482
  39.0873902  34.9805931  69.4724683  39.7109285  34.6793058  69.1047728
  48.6067415  26.0791474  69.1372998  48.6465786  26.5800680  69.8507706
  47.7817079  26.1701867  68.8678921  48.4906940  26.1673290  69.2023536
  50.7897027  35.6452214  77.2393293  49.9392658  35.7823928  77.3750938
  50.9525155  34.9115992  77.6840994  50.6880891  35.5566315  77.3248892
  50.0281778  32.5951983  71.4346897  49.1973708  32.7625801  71.2282145
  49.9733295  32.2187934  72.2195782  49.8971193  32.5641715  71.5195425
  47.8365561  26.0860876  77.0703308  48.4618265  25.5423009  77.3432740
  47.3816041  25.6055794  76.5011098  47.8613822  25.9350358  77.0264902
  48.4017822  30.8707575  61.9637015  48.5420783  31.3680039  62.6665656
  48.9000355  30.1693869  62.1051229  48.4958903  30.8409554  62.0888594
  48.4318044  31.7374686  59.2929592  49.0663124  32.3335111  59.2279053
  48.5143655  31.4378144  60.1075462  48.5374595  31.7815594  59.4032678
  61.4100610  34.2690163  72.1615956  62.0018450  34.9087414  72.1934154
  61.8459604  33.5713200  72.4508023  61.5619041  34.2608514  72.2096788
  50.0097027  27.6688661  59.2675034  50.3312868  27.1891744  58.6134296
  50.2723971  28.4788307  59.0765845  50.0963052  27.7178559  59.1430526
  53.2394000  38.6907536  72.7873850  52.7319091  39.2443383  73.2314480
  52.9420646  38.7515826  71.9692624  53.1198885  38.7813847  72.7322306
  55.4056182  27.0560855  71.6298513  55.8311254  26.6033382  71.0182039
  54.7913175  26.5020926  71.9063300  55.3784827  26.9074832  71.5803538
  44.9371032  33.9342527  62.5619138  45.4463261  34.5307034  62.9430443
  45.4105304  33.6668500  61.8795557  45.0814408  33.9828342  62.5173660
  55.8501780  42.6070793  60.7177793  55.1331090  42.4331656  60.2525031
  56.5008518  42.3723366  60.1853279  55.8403631  42.5466586  60.5707011
  53.8450405  23.5275955  65.0389090  53.2018723  23.3773602  65.6074228
  53.5049812  23.2818300  64.2738194  53.6995482  23.4688078  65.0092105
  58.4349751  31.4835382  64.4619098  57.7640941  32.0265084  64.3332164
  59.1289502  31.9530237  64.2200793  58.4378619  31.6333653  64.4074626
  52.4836485  43.6232094  69.6930857  52.2602139  42.8650923  70.0614883
  51.9946328  43.6530115  68.9711296  52.3779934  43.5154319  69.6407598
  58.5977879  27.9391266  67.3709472  58.9505489  27.5120989  68.0455270
  57.7392680  27.8542109  67.5010548  58.5227323  27.8636006  67.4904482
  47.2961564  30.5698785  65.4292318  46.5773553  30.9862918  65.6965182
  47.6673926  31.1353024  64.8783956  47.2453496  30.7148067  65.3875125
  56.5961145  31.2026634  71.3194314  56.5759072  31.0209929  72.1729093
  56.6440345  32.0738653  71.2953897  56.5995786  31.3043172  71.4417609
  54.5407474  37.7913826  77.2442790  54.5003329  37.1463503  76.6587946
  55.3530793  37.7350444  77.5568202  54.6550628  37.6872793  77.2039740
  51.1314942  43.8432552  67.1467941  50.7175341  43.1806682  66.7571783
  51.8162316  43.9910411  66.6263635  51.1713314  43.7673210  67.0124438
  54.4980236  43.0022637  67.8991558  54.0996519  43.1124908  67.1312378
  53.8831456  43.2104704  68.4818118  54.3479125  43.0496205  67.8722857
  53.0708138  29.6096785  60.7665698  52.4772977  29.9313782  60.2150265
  53.1083416  28.7637881  60.5586804  52.9882527  29.5321113  60.6548469
  60.0301939  23.0609677  68.2993784  59.5232804  22.3538817  68.2314962
  60.8269373  22.7302866  68.4294861  60.0729178  22.9082829  68.3092779
  55.9465955  29.5676290  64.1967448  55.7179648  29.5908991  63.3545806
  56.2064031  28.7433757  64.3162458  55.9512143  29.4492370  64.0892646
  50.2285183  31.4210763  73.7992548  49.7164086  30.8131946  74.1577579
  50.0564679  32.1367355  74.2666524  50.1274820  31.4374062  73.9208772
  45.0750898  29.8648338  76.4494910  44.9053488  30.5249713  75.9043116
  44.6316848  30.0754899  77.1707399  44.9850231  29.9934320  76.4756539
  49.0010717  28.1052836  65.4921643  49.4768083  28.4669916  64.8571825
  48.4999317  28.7609304  65.7721786  48.9976076  28.2547025  65.4398384
  62.2322079  37.5774604  61.2834648  62.6155685  38.3265960  61.5132746
  61.4366192  37.8240424  61.0246638  62.1715861  37.7244298  61.2792222
  54.1054253  29.3435007  76.2394804  54.6625684  29.1148817  75.6073269
  53.7815319  30.1040673  75.9630016  54.1400664  29.4218844  76.1051301
  41.9752962  32.7695204  71.7083400  41.4279682  32.0995849  71.8264268
  42.7645341  32.4025051  71.7726867  42.0105146  32.6160190  71.7352100
  51.8237371  32.4302661  77.2046811  52.5748698  32.7454338  77.5186365
  52.0159947  32.2281832  76.3780732  51.9628785  32.4470042  77.1290206
  51.0437370  30.2494036  58.8595027  51.4236335  30.2673665  58.0746142
  50.3029966  30.6948025  58.7385875  50.9906208  30.3175810  58.7258596
  58.6722661  28.5576227  64.4470606  58.6716887  28.4024884  65.3054882
  58.4678841  29.4039214  64.3911992  58.6422439  28.6596848  64.5658546
  40.7339932  31.9816011  68.8629423  40.5561693  31.5292620  69.5884338
  40.4458954  32.7842173  69.0467900  40.6652885  32.0338569  68.9972926
  56.3963513  33.2373729  68.1006813  56.8917178  32.5196724  68.0610833
  55.5863289  32.9344526  67.9861300  56.3507406  33.0871375  68.0780539
  51.8422124  37.0871542  60.2503817  51.0333447  36.7638216  60.2037127
  52.3497033  36.3804764  60.1832066  51.7971791  36.9352858  60.2334112
  42.4712402  34.5143735  65.9751182  41.6057921  34.5029426  65.8633953
  42.5711218  34.3273958  66.8222321  42.3586569  34.4849796  66.0840126
  58.4615332  35.9877416  70.7883942  58.8870403  35.4651838  70.2354367
  58.0972252  36.5858254  70.2672565  58.4701934  35.9987643  70.6292951
  48.0969412  44.2841634  69.5481287  48.4115971  45.0978022  69.5559069
  48.5062825  43.8991852  70.2163446  48.2037510  44.3470336  69.6485379
  55.0493931  39.7011681  67.1185099  55.5205109  40.4151943  67.2875084
  55.3854110  39.1010431  67.6544969  55.1689046  39.7183145  67.2217475
  57.1370916  41.3112994  79.2977171  57.2467881  40.5221555  79.6533918
  57.4661812  41.2218930  78.4951509  57.2023322  41.1818847  79.2319562
  51.9663426  24.4739151  74.0743194  52.0991332  23.6770145  74.4024170
  52.3508579  25.0005554  74.6541470  52.0419755  24.4339068  74.2086697
  55.6867878  39.4929615  73.8812792  55.1388824  38.8687498  73.6132857
  56.1480906  39.6823887  73.1656871  55.6735087  39.4288665  73.7363223
  55.0395781  21.3969477  70.6724287  54.2341745  21.2867207  70.9892126
  54.9102517  21.4981933  69.8154153  54.9015914  21.3953147  70.5932328
  58.4961742  27.5614969  71.2663984  57.9124731  28.0624176  70.8541552
  58.8166036  27.0544525  70.6328307  58.4574917  27.5606804  71.1122491
  51.0356541  26.4755564  61.5422659  51.8572235  26.6453877  61.3004354
  50.5726192  26.6302825  60.8188957  51.0887703  26.5237297  61.3994303
  49.6251873  24.4698326  72.3221088  50.1696286  24.1289453  72.9125429
  49.6788809  25.3283788  72.4642372  49.7140992  24.5453586  72.4302961
  45.4382432  38.2314742  69.1959896  46.0427289  38.1910576  68.5673716
  45.2309744  39.0785894  69.2263951  45.4971329  38.3502745  69.1076012
  55.2526204  40.4980687  70.4122133  56.0724578  40.3543653  70.6738428
  54.9720282  41.1226886  70.9538571  55.3322947  40.5691039  70.5310072
  40.6733714  37.2149360  69.0658819  40.5757992  36.4045631  69.3748875
  41.4562584  37.1941153  68.6805087  40.7749851  37.0916450  69.0545682
  71.7239854  48.1545539  63.3765009  71.6933859  49.0090176  63.5483279
  72.3221203  47.8540832  63.9351153  71.8077012  48.2362036  63.4839812
  64.9239539  47.2421190  68.1317940  64.0677435  47.4029688  68.1827057
  64.9707193  46.3713254  68.1523001  64.8038651  47.1371992  68.1424006
  59.3080679  56.7783908  63.8955171  58.5563578  56.3999446  63.6671216
  59.7566690  56.8102342  63.1473982  59.2630346  56.7269515  63.7512674
  64.7605639  57.2009277  59.3240718  64.4257007  57.8786199  58.8884941
  65.2732509  56.8114589  58.7357590  64.7871220  57.2433856  59.1727510
  64.3009930  59.1523546  65.2651830  64.6849309  59.7210445  64.7256605
  64.2369071  58.4273057  64.7857646  64.3483357  59.1299010  65.1145693
  67.7691360  49.3013234  70.7749591  68.3147320  49.9798321  70.8343561
  67.7108236  49.1600695  69.9151173  67.8407274  49.3805236  70.6561652
  60.8865435  56.7902300  66.1617944  60.9875798  55.9802654  66.4715072
  60.2907180  56.6959247  65.5317622  60.8137974  56.6567328  66.1144182
  69.5456429  50.7297841  61.6483319  69.4295955  51.4805527  62.0775457
  70.3412315  50.4721794  61.8979406  69.6461018  50.8032688  61.7487411
  60.7266175  61.7079889  67.5632800  61.3703630  62.1493053  67.9528958
  61.0522430  60.9033316  67.4763059  60.8698003  61.6545084  67.6078277
  54.0830479  52.8122587  65.7870278  53.8480664  51.9790239  65.6802546
  54.2216120  53.0927252  64.9731479  54.0686142  52.7306090  65.6512633
  56.3820567  44.9808317  68.6854585  55.7625598  44.3900965  68.5164600
  56.2804430  45.5719753  68.0518908  56.2758242  44.9812400  68.5659575
  61.4286754  54.7191864  62.9352662  61.7502595  55.2597071  62.3313970
  62.0758851  54.1488636  63.0674951  61.5712809  54.7151039  62.8659697
  63.4788462  46.7207859  63.0187048  64.1768627  46.8995987  63.5108512
  63.7940795  46.1978198  62.3957438  63.6283800  46.6701631  62.9989059
  56.1089700  48.5260599  70.9298154  55.9848397  49.1123045  71.5647973
  56.7607984  48.0320795  71.2310429  56.1863349  48.5399403  71.0684084
  63.6676398  53.1078304  63.0066840  64.1070033  52.4995405  63.4521613
  63.5181061  52.7285677  62.2352305  63.7097863  52.9616775  62.9586007
  61.1348041  51.7022316  70.2085665  61.7797043  51.2094759  69.8896614
  61.3749818  51.8447103  71.0351744  61.2658626  51.6499758  70.2835199
  63.6734132  54.5477222  69.8592558  63.9557375  53.7528628  69.6379314
  64.4020293  55.0257809  69.8797619  63.8223696  54.5011819  69.8295573
  61.6515326  42.0900256  67.1008323  61.3218656  42.5411399  66.4312022
  60.9760328  42.0116419  67.6481329  61.5025762  42.1451391  67.0831546
  67.2685734  51.4605485  59.9597609  67.1837029  52.3166452  60.1047178
  67.7570118  51.1849810  60.6279768  67.3274632  51.5462807  60.0799691
  68.8591734  38.0785779  65.3457934  68.5445175  38.7689257  65.7778356
  68.3418675  38.0230561  64.6443434  68.7356204  38.1720667  65.3054883
  68.2004168  48.0790280  61.4595344  67.6715639  48.2949913  62.1192650
  68.7229187  48.7726418  61.3796314  68.1992621  48.2133417  61.5450943
  73.6552220  53.6536584  66.8328389  72.8249924  53.8647228  66.9961805
  73.6061473  52.8273639  66.5570672  73.5258956  53.5626190  66.8165754
  60.0903775  51.9753496  60.2602812  59.5060991  52.4803528  60.6668676
  59.6873871  51.7495883  59.5199404  59.9443079  52.0161745  60.2107837
  55.6447804  57.6908258  67.0626484  55.1615382  58.4158747  67.0386067
  56.4571122  57.9884388  67.1736641  55.6938552  57.8410611  67.0753763
  61.7161958  56.4840438  69.6676298  61.1988900  56.1247853  69.0637606
  62.4136349  55.9602613  69.6782364  61.7427539  56.3538126  69.5806557
  64.5480990  48.2219148  58.7371733  64.7876993  48.4297132  57.9247076
  64.8696831  47.4176657  58.8460677  64.6318148  48.1333250  58.6332286
  59.8571280  40.1512544  62.5831271  60.6117248  40.5190861  62.3448321
  59.6798815  40.5252099  63.3510450  59.9425758  40.2610732  62.6616159
  58.4992001  58.2064433  67.2146764  59.2012581  57.6916422  67.2719520
  58.4189484  58.5338585  68.0193639  58.5915762  58.1778660  67.3419556
  73.1506179  46.3006985  70.6278810  72.3134600  46.3709172  70.8626404
  73.1194410  46.3031480  69.7553112  73.0224461  46.3117212  70.5338358
  59.5470908  48.4440020  76.3427179  59.7191411  48.3345915  77.1912460
  60.0840265  49.0894426  76.1058371  59.6515912  48.5232022  76.4332275
  58.2128345  42.5582863  59.2809384  58.0303918  42.7754744  58.4550376
  59.0753958  42.6721876  59.3367998  58.3132934  42.6072761  59.1663871
  57.8242777  54.3970785  66.7232372  58.6631676  54.6293718  66.7706133
  57.8554546  53.5275097  66.6539407  57.9524494  54.3027732  66.7197016
  58.4495480  54.8171661  71.0245677  58.9893705  54.6742792  71.6949049
  57.7665426  55.2168411  71.3929703  58.4287634  54.8551332  71.1780099
  63.8928064  39.5609274  62.3158408  64.6214224  39.3825229  61.8696564
  63.9822957  40.4027354  62.5265586  64.0134726  39.6593152  62.2811925
  67.8736365  50.4962661  66.2190701  68.6293880  50.9294176  66.2579610
  67.9798689  49.8467431  66.7925338  68.0006535  50.4640145  66.3088727
  70.9116536  54.3235938  66.9693104  70.4751768  54.3272681  67.7252076
  70.5779451  55.0041437  66.5372682  70.7979156  54.4248394  67.0173937
  53.8532625  51.0371951  71.1780099  53.5871040  50.2211068  71.3371089
  53.8671189  51.0825107  70.3075614  53.8157347  50.9228856  71.0733581
  70.8314019  41.3649766  69.2122532  71.4739927  41.4347871  69.7984448
  71.0837039  40.6978989  68.7102074  70.9636151  41.2776115  69.2249812
  57.7590372  45.8357036  57.7931857  57.0448549  45.5495215  58.2054289
  58.2434340  46.1753662  58.4338244  57.7249735  45.8438685  57.9487492
  58.6031231  44.5750330  73.8247106  57.9103028  44.1047309  74.0707838
  59.2191558  44.3488634  74.3988814  58.5915761  44.4717462  73.9456259
  74.0460882  51.0416858  65.8612742  74.7077316  50.4807527  65.7608650
  73.4052294  50.5468889  66.1865433  74.0489749  50.8853267  65.8945082
  64.9337690  54.3386990  58.1693665  65.3488838  54.0072014  57.4778161
  64.1029619  54.1055892  58.0413802  64.8725698  54.2558246  58.0484512
  54.2626038  51.8230731  68.4591843  54.0801612  51.7977617  67.6064135
  54.9975707  52.2929669  68.4980752  54.3440102  51.8892093  68.3389761
  70.3325713  52.0582241  65.6024730  70.5681302  52.2027440  64.7751581
  70.4815276  52.8224649  65.9956244  70.3891516  52.1921295  65.5388334
  57.3271790  48.5415734  74.9673952  58.0511762  48.5268764  75.4538846
  57.4287927  49.2511089  74.4695920  57.4489999  48.6440437  74.9652738
  67.3748058  48.7448809  64.1217914  67.4694913  49.4838104  64.5757540
  66.7506902  48.3166285  64.5552479  67.2957089  48.7910130  64.2526062
  65.6300532  51.9235022  74.7708195  66.2039394  51.2862266  74.9256759
  65.5515336  51.9239104  73.9017853  65.7033767  51.8300133  74.6654606
  54.2296949  48.7024231  68.6090910  54.8070451  48.5660682  69.2483155
  53.5311010  48.2460016  68.8636494  54.2117970  48.6146498  68.7413199
  67.6271080  50.5897549  57.3554866  67.5451242  50.6599736  58.2209853
  68.2650800  51.1527293  57.1638607  67.7090917  50.6836520  57.4544816
  60.9864251  50.3558287  66.8229393  60.7283495  49.5230022  66.7960692
  61.0412734  50.5815900  65.9821893  60.9564029  50.2656058  66.6949529
  66.0665301  42.4586738  66.9233485  65.3621628  41.9695923  67.0817405
  66.1150275  42.4709212  66.0521930  65.9695353  42.3876386  66.8172825
  59.9598963  47.9096050  67.3094287  59.3848554  48.0688218  67.9458248
  59.5834639  47.2731459  66.8462738  59.8201775  47.8393863  67.3348846
  63.6272252  46.3819399  72.1686666  63.2386684  45.9573617  71.5138857
  62.9626950  46.6301549  72.6763693  63.4719179  46.3558120  72.1474534
  73.2695521  46.1394404  64.9434496  73.0132086  45.3274345  64.7532379
  74.1124835  46.1471971  64.7164683  73.3561546  46.0206401  64.8819313
  49.7055782  47.5536124  65.3238728  49.7916034  47.1767993  66.1052258
  50.3331579  47.1796570  64.8458686  49.8112333  47.4421607  65.3684205
  67.4498613  40.0794028  69.6810650  67.8309125  39.3972199  70.0678524
  66.6461898  39.7903630  69.4986315  67.3875075  39.9361076  69.7114706
  64.7311190  50.6118003  60.3663473  65.5451829  50.9032896  60.2546244
  64.6670331  49.9577866  59.7921766  64.8413929  50.5583198  60.2652310
  60.6019098  54.0839521  65.4935785  61.2393045  53.8451268  66.0387578
  61.0274170  54.2876680  64.7588946  60.7595264  54.0790531  65.4652942
  55.2931741  56.3227857  69.3770089  55.3335886  56.5942709  68.5489868
  55.8526265  56.8469766  69.7927877  55.3815087  56.4403613  69.3161977
  61.2421913  49.3041811  59.8310674  61.6267066  49.0849517  60.5827219
  60.9933534  50.1304756  59.9611751  61.2623986  49.3939957  59.9611751
  61.4090454  42.5848226  79.5473259  61.0943895  43.3547789  79.2842821
  61.0880386  42.0218482  78.9625486  61.3149373  42.6158495  79.4214608
  71.9757101  53.0788448  70.8421343  71.6702918  53.8116505  71.2034659
  71.2563316  52.6726378  70.5614129  71.8244443  53.1270181  70.8534480
  62.9840570  54.5611944  67.1729571  63.0579578  54.3987115  68.0271421
  63.8010076  54.7502133  66.9290053  63.1156929  54.5648686  67.2627597
  77.6758893  49.7181449  70.1689687  77.6083393  49.7377408  69.2992274
  77.6614555  50.5611776  70.3945358  77.6637649  49.8455184  70.0742164
  56.7446327  54.9069806  64.2024015  55.9184445  55.1531544  64.0758293
  56.8058318  54.8281887  65.0686073  56.6320494  54.9314755  64.3112959
  58.9622351  40.9738747  65.1619455  58.0944776  41.0461347  65.2277064
  59.2497555  41.7760826  65.3507430  58.8762099  41.1032894  65.1994221
  68.0855239  41.1216607  73.4930777  68.8308831  40.9326417  73.0794202
  67.6692544  41.6474845  72.9344633  68.1340214  41.1718752  73.3495350
  61.5245156  57.5246687  61.9043045  61.8143454  57.1335668  61.1802271
  62.2548637  57.7063392  62.3448320  61.6752040  57.4940500  61.8625852
  75.4617510  48.4925835  68.4436282  76.0125432  47.8593904  68.6833374
  75.4461626  49.0241228  69.1351786  75.5402707  48.4774783  68.5815140
  62.1139901  52.3264433  72.9896175  61.6151595  53.0380200  73.0681064
  62.9240125  52.6465099  72.9514337  62.1596008  52.4791281  72.9952744
  59.4651071  59.5014069  64.9703194  59.2451367  59.2111424  65.7629861
  59.2445593  58.8429024  64.4421107  59.3998666  59.3613777  65.0092103
  58.3768019  51.5887386  67.2358896  58.0881267  50.9624857  67.7704623
  59.2451367  51.5307673  67.3023576  58.4628271  51.4874930  67.3249851
  69.1645916  46.7322169  67.5540878  68.8210682  46.0112504  67.9048128
  69.2638959  46.5236020  66.7119236  69.1287959  46.5946372  67.4812558
  61.6319027  60.8743459  63.7533887  62.2843085  60.3419901  63.9824913
  60.9344636  60.5212111  64.1401761  61.6249745  60.7432982  63.8446054
  58.5800292  53.2282637  63.1601261  59.3346260  53.6095676  63.3736724
  57.9870905  53.6793780  63.6147958  58.6037006  53.3511464  63.2584139
  69.6258946  53.1947873  63.0964866  70.1916978  53.8541083  63.0123409
  68.9786849  53.5397571  63.5681268  69.6137702  53.3429814  63.1537622
  61.0406959  45.1845477  78.2858473  60.2306735  45.4903257  78.1748316
  61.5181646  45.9051059  78.4011057  60.9910438  45.3360078  78.2865544
  59.8998519  54.3991198  68.5341376  59.3779272  54.5391490  69.2193241
  60.2872539  53.6401862  68.7243494  59.8802220  54.3076722  68.6642453
  56.8889703  44.4497007  62.6036331  56.6014498  44.0798277  61.8668278
  57.5760171  44.9191862  62.3420036  56.9478600  44.4643976  62.4551407
  66.0965524  56.1386657  62.5201945  65.8552200  55.4054518  62.1129010
  66.2766857  56.6873514  61.8668279  66.0873148  56.1109048  62.3632168
  61.3264844  51.4295217  63.9322867  61.1307627  52.0369952  63.3383170
  61.5499190  50.7363161  63.4514541  61.3299485  51.4172742  63.7738948
  59.7243374  48.3149955  64.0503736  60.4466026  48.4791113  63.5907542
  59.2451367  49.0359620  63.9443076  59.7607105  48.4448184  63.9669350
  67.6836882  44.6513754  69.4300421  66.8447982  44.6775033  69.1938684
  67.7541249  45.2984489  70.0105767  67.5705275  44.7509880  69.4809538
  57.3750991  50.7208027  73.1557876  57.8872088  50.9992281  72.5066635
  57.0887334  51.4597321  73.5220689  57.4085854  50.8710381  73.1147754
  66.1306160  41.5499131  64.1628037  66.8332513  41.3506879  63.6847995
  65.8650349  40.7775073  64.4696880  66.1952792  41.4062097  64.1373478
  71.5594406  49.8581740  66.7161663  71.4728380  50.0137167  67.5696441
  71.1044886  50.5019816  66.3421068  71.4797662  49.9757496  66.7868769
  54.4617897  45.2278219  63.4521612  54.5634034  46.0304381  63.7802588
  55.2573784  45.0265555  63.1544693  54.5945803  45.3164118  63.4556968
  60.8934716  42.8134416  73.2158917  60.7017913  42.8289550  74.0658341
  61.7433312  43.0098090  73.1925572  60.9910438  42.8448767  73.3382212
  55.2781629  45.3425397  71.1942734  55.1367121  44.4909338  71.3187242
  55.5622193  45.3854058  70.3704940  55.2989475  45.2225147  71.0910358
  65.4320222  47.1792488  65.3387222  65.1854936  47.0988238  66.1724011
  65.7605345  46.3945955  65.1449750  65.4441465  47.0518753  65.4334745
  69.3268271  53.8875847  69.1274003  69.1882630  54.5856893  69.6322746
  68.5468268  53.7324503  68.7710185  69.1911497  53.9676014  69.1500277
  67.6646356  50.1872222  75.3796385  67.6594394  49.3152039  75.3838811
  68.3707350  50.3860391  74.9065841  67.7691360  50.0876096  75.3103420
  61.3917249  49.9149206  74.7510205  61.5360625  50.4950414  74.1153315
  61.7392898  50.2925503  75.4560060  61.4644710  50.0569910  74.7609200
  63.5637166  49.1139375  72.5335337  62.8160480  49.3070389  72.1283615
  63.7178692  48.2884594  72.2959458  63.4759594  49.0204486  72.4380743
  60.4645004  58.1051978  71.6171232  60.6134568  57.5454894  70.9644636
  61.2445006  58.1843980  72.0003751  60.6019098  58.0337543  71.5768181
  70.8221643  53.2454101  59.8890503  70.4428452  52.4591239  59.8819792
  70.1587889  53.7940958  59.7462147  70.6680118  53.2098925  59.8671299
  63.8038943  43.0089925  73.4230740  64.2611558  43.7413900  73.5503533
  63.8795272  42.5856391  74.1817996  63.8829913  43.0547163  73.5531817
  56.0471935  43.2555745  74.5120184  55.5114124  42.6436103  74.8280951
  56.1089699  43.8303881  75.1653851  55.9767567  43.2502673  74.6555611
  68.2766269  36.1879800  67.2924583  68.3949837  36.6456264  66.5591886
  68.1028445  35.3825062  67.0060801  68.2685440  36.1373573  67.1425517
  63.6468552  56.7967620  63.7279329  64.4118443  56.5277263  63.4061993
  63.5446642  56.3117630  64.4449392  63.7450047  56.6857184  63.7859156
  61.6821321  44.9992029  70.2672564  60.8917396  44.8183489  70.5889900
  62.0781944  44.2218982  70.2502859  61.6238198  44.8579490  70.3125113
  66.1687212  53.8279803  55.7079278  66.9360197  53.8879928  55.2985130
  65.7218521  53.2560245  55.2235597  66.2160639  53.7516379  55.5756988
  67.0665008  52.6334459  67.9932010  66.3910009  52.4019692  68.4945397
  67.0757384  52.0255642  67.3674115  66.9683512  52.5093385  67.9748163
  64.1959152  47.4752288  74.7496063  64.1318293  48.3362245  74.6216200
  64.3356339  47.1584282  73.9491615  64.2074622  47.5552455  74.6124276
  69.0681742  55.4899592  60.2242188  69.1501580  56.2966578  59.9003639
  69.5531484  55.5095551  60.9482962  69.1518900  55.6120254  60.2829087
  62.8778246  50.1684428  68.8912266  62.4540495  50.3688927  68.1551285
  62.7023101  49.3213276  69.0036566  62.7889126  50.0733209  68.7985956
  62.3789939  61.6834941  71.3533724  62.8685869  60.9845730  71.1709388
  61.8074171  61.3858811  71.9409781  62.3674469  61.5361164  71.4134764
  58.1660690  50.6636479  64.3240239  58.3225310  50.5983282  65.1796231
  58.5061284  51.4385032  64.1118918  58.2393925  50.7685677  64.4194833
  64.7039835  50.0394363  63.1933602  65.2455381  49.5364744  63.6572223
  65.0186394  49.9859557  62.3823087  64.8304232  49.9573784  63.1417414
  62.8726285  55.4311714  60.4773630  62.9419105  54.5726253  60.6166630
  63.6514740  55.6483595  60.1492655  62.9979135  55.3364578  60.4490787
  65.8529104  44.9330667  73.2455903  66.0671074  44.2941581  72.6919256
  65.2363004  45.3776491  72.8163764  65.7934434  44.9040811  73.1006334
  67.2633772  57.8549415  64.6910123  66.8713564  57.5516131  63.9732990
  67.4186845  58.6918505  64.5015077  67.2287362  57.9333252  64.5566620
  54.7394952  47.8471430  64.6401006  55.1193917  48.2655974  63.9761273
  54.1650317  48.4284885  64.9469849  54.7106277  47.9949288  64.5877747
  68.0168192  46.5419732  74.1839210  67.2044874  46.2345623  74.2652382
  68.4758127  46.0618732  74.7481922  67.9648577  46.4256225  74.2793804
  67.4273447  54.4199404  64.6316154  67.0688102  54.5914047  65.4080186
  66.9412158  54.8812610  64.0744152  67.3032144  54.5138375  64.6641423
  65.2443833  38.0430603  68.2343245  64.3737391  38.0169324  68.1876555
  65.4984174  37.8707795  67.4169091  65.1537393  38.0140747  68.1063382
  62.2161813  50.0998570  57.1716388  62.5054337  50.8763452  57.4459963
  62.3033611  49.5887301  57.8730888  62.2716069  50.1390488  57.3158886
  62.2692974  40.0536831  69.6916716  61.7531462  39.3617023  69.8168295
  61.7086902  40.7207608  69.6379314  62.1099487  40.0500089  69.7022782
  64.3385207  40.5929791  71.5209568  63.9516960  40.6178823  72.3023098
  63.8518144  40.0271470  71.0684085  64.2097716  40.5125542  71.5697472
  70.3135187  47.1592446  70.1449270  69.8862795  47.0718795  69.3897370
  69.6761240  47.2670222  70.7304115  70.1564794  47.1625106  70.1194712
  64.0042349  37.4796777  73.8119828  64.6335467  38.0157077  73.5340899
  64.1728211  37.3874136  74.6633394  64.1220143  37.5458139  73.8968356
  63.8056264  42.2667971  76.0846240  64.6329693  41.9953120  76.1404854
  63.8264110  43.0628813  76.4410058  63.9309114  42.3447726  76.1461423
  58.3825754  49.4131834  69.2716500  57.5413760  49.3135708  69.4795394
  58.5915761  50.1827315  69.6230821  58.2890446  49.5123878  69.3543815
  55.8601320  47.0351371  67.1001251  55.4658018  47.1094383  66.3251361
  55.3041437  47.4209318  67.6509613  55.7204133  47.1033146  67.0668911
  67.4966267  40.0132665  66.7805130  67.7015861  39.9454973  67.6262127
  67.1692691  40.8191486  66.7126307  67.4781515  40.1218606  66.8964785
  62.1942418  47.3413233  68.5214098  61.8905556  46.7869222  69.1224506
  61.4921839  47.5205443  68.0342132  62.0458628  47.2858016  68.5383804
  61.2508515  44.6513753  63.0858800  61.5268250  43.9332666  62.6736367
  61.8507185  45.2498673  62.8779906  61.3801780  44.6334124  62.9939561
  60.2560769  54.5562954  73.2286196  60.1481124  54.5665016  74.0948254
  60.4656551  55.3817735  73.0391149  60.2710880  54.6804029  73.3290287
  70.7499955  40.5664430  66.2607895  70.1374269  41.0534832  66.6461627
  70.8464130  39.8907920  66.8045547  70.6737853  40.5382738  66.3986754
  64.7519036  42.3227271  61.3605395  65.2062783  42.4937831  62.0853239
  65.2259082  41.7095381  60.9603170  64.8887356  42.2578156  61.4079156
  58.2734561  51.8075597  70.6908133  57.6822495  52.4485095  70.6611148
  59.0355585  52.2313214  70.6639433  58.2982822  51.9651435  70.6823280
  58.6695184  42.9677594  71.3576151  59.1296666  43.0416524  72.0951275
  58.7151291  43.7658848  71.0075972  58.7445739  43.0971741  71.4148907
  60.3178534  43.6344289  75.9248178  59.9264099  42.9877636  76.3603956
  60.4864397  44.2255724  76.5442433  60.2849444  43.6258557  76.0810884
  68.0324078  57.2584908  68.1240158  67.8343766  57.7475723  67.4296369
  67.4111789  57.4626150  68.7024291  67.9111642  57.3601446  68.1063381
  62.0932056  49.0269805  62.4650402  62.8374101  49.4144081  62.7033352
  62.2392752  48.1827230  62.6290890  62.2242641  48.9600278  62.5244372
  64.0111631  40.8220064  67.4982263  63.1647676  40.9942872  67.3723613
  64.0082764  40.0169408  67.8348092  63.8858781  40.7281093  67.5293390
  65.0809932  44.5995278  68.3644321  64.6069886  44.0737040  68.8749632
  65.4528068  44.0524751  67.7959183  65.0659821  44.4411275  68.3559469
  55.4582962  46.5966785  73.7327867  56.3208575  46.4962494  73.6465197
  55.1274745  46.0161494  73.1713439  55.5368158  46.4958412  73.6373273
  71.3446662  49.6597654  69.7751102  71.1044885  48.8204069  69.7793528
  71.8238670  49.7397821  70.4991875  71.3798846  49.5479054  69.8825904
  67.0093431  45.4931833  61.4270075  66.4816450  45.5760577  60.7375784
  67.4689140  46.2349704  61.4234720  66.9995282  45.6152495  61.3244770
  73.3451849  46.4399111  67.7280361  73.1061619  46.3994945  66.8901146
  73.5085751  47.2870263  67.8546082  73.3342153  46.5591196  67.6233843
  69.9497880  50.8249060  73.6585406  70.6732078  50.3721587  73.4796426
  69.6847842  51.1053726  72.8757734  70.0179153  50.8000029  73.5164121
  58.8184748  45.4209234  70.3938285  58.1937818  45.4327626  69.7864238
  58.4830343  45.8969409  71.0429526  58.6770240  45.4927751  70.3994854
  59.0026497  43.7634352  56.4510970  58.6539301  44.4154078  56.9142520
  58.5222942  43.7491466  55.7234842  58.8796741  43.8577406  56.4122062
  55.5310423  53.4809694  71.8342050  55.0010348  52.7902133  71.8837024
  55.8035517  53.4719879  71.0054758  55.4935146  53.3776826  71.7189466
  66.5630514  54.0635396  60.5579732  67.2864713  54.5293509  60.4144305
  66.1231105  54.1309006  59.8077329  66.6046206  54.1419233  60.4264514
  65.7316669  50.9232939  71.8080421  65.1173662  50.3790989  72.1029056
  66.2483954  50.4097175  71.3286237  65.7172331  50.7669348  71.7804650
  64.9712966  51.9937209  69.5424720  64.5440574  51.3686927  69.1090155
  64.9637911  51.7112131  70.3683727  64.9072107  51.8589989  69.6004547
  58.0875493  47.0302382  72.6113154  58.2468980  46.2745706  73.0164876
  57.9068387  47.5793321  73.2653891  58.0840852  46.9996196  72.7675860
  66.0295796  39.1963617  73.1663943  65.5336358  39.3927292  72.4755510
  66.7864858  39.5956286  72.9952745  66.0682621  39.2841351  73.0384080
  63.2998676  42.8705963  69.7567254  63.3241163  42.3366076  69.0680034
  63.5510150  42.3623272  70.4192844  63.3408595  42.7166867  69.7531898
  50.8106266  50.1537458  69.1910398  50.7049715  50.1084303  68.3262482
  50.0606486  50.4991239  69.4724683  50.6841869  50.1978366  69.1047728
  59.5799998  41.5976782  69.1372998  59.6198370  42.0985988  69.8507706
  58.7549663  41.6887175  68.8678921  59.4639524  41.6858598  69.2023536
  61.7629611  51.1637522  77.2393293  60.9125242  51.3009236  77.3750938
  61.9257739  50.4301300  77.6840994  61.6613475  51.0751623  77.3248892
  61.0014362  48.1137291  71.4346897  60.1706291  48.2811109  71.2282145
  60.9465879  47.7373242  72.2195782  60.8703776  48.0827023  71.5195425
  58.8098145  41.6046184  77.0703308  59.4350848  41.0608317  77.3432740
  58.3548625  41.1241102  76.5011098  58.8346405  41.4535666  77.0264902
  59.3750405  46.3892883  61.9637015  59.5153366  46.8865347  62.6665656
  59.8732938  45.6879177  62.1051229  59.4691486  46.3594862  62.0888594
  59.4050628  47.2559994  59.2929592  60.0395707  47.8520419  59.2279053
  59.4876239  46.9563452  60.1075462  59.5107179  47.3000902  59.4032678
  72.3833194  49.7875471  72.1615956  72.9751034  50.4272722  72.1934154
  72.8192188  49.0898508  72.4508023  72.5351625  49.7793822  72.2096788
  60.9829611  43.1873969  59.2675034  61.3045452  42.7077052  58.6134296
  61.2456554  43.9973615  59.0765845  61.0695636  43.2363867  59.1430526
  64.2126583  54.2092844  72.7873850  63.7051674  54.7628691  73.2314480
  63.9153230  54.2701134  71.9692624  64.0931468  54.2999155  72.7322306
  66.3788766  42.5746163  71.6298513  66.8043837  42.1218690  71.0182039
  65.7645759  42.0206234  71.9063300  66.3517411  42.4260140  71.5803538
  55.9103616  49.4527835  62.5619138  56.4195845  50.0492342  62.9430443
  56.3837888  49.1853808  61.8795557  56.0546991  49.5013650  62.5173660
  66.8234364  58.1256101  60.7177793  66.1063673  57.9516964  60.2525031
  67.4741101  57.8908674  60.1853279  66.8136214  58.0651894  60.5707011
  64.8182988  39.0461263  65.0389090  64.1751306  38.8958909  65.6074228
  64.4782395  38.8003608  64.2738194  64.6728066  38.9873386  65.0092105
  69.4082335  47.0020690  64.4619098  68.7373525  47.5450392  64.3332164
  70.1022085  47.4715545  64.2200793  69.4111202  47.1518961  64.4074626
  63.4569069  59.1417402  69.6930857  63.2334723  58.3836231  70.0614883
  62.9678912  59.1715423  68.9711296  63.3512518  59.0339626  69.6407598
  69.5710462  43.4576574  67.3709472  69.9238072  43.0306296  68.0455270
  68.7125264  43.3727417  67.5010548  69.4959907  43.3821314  67.4904482
  58.2694147  46.0884093  65.4292318  57.5506136  46.5048226  65.6965182
  58.6406510  46.6538332  64.8783956  58.2186079  46.2333375  65.3875125
  67.5693728  46.7211942  71.3194314  67.5491655  46.5395237  72.1729093
  67.6172929  47.5923961  71.2953897  67.5728369  46.8228480  71.4417609
  62.1047526  59.3617860  67.1467941  61.6907924  58.6991990  66.7571783
  62.7894900  59.5095719  66.6263635  62.1445897  59.2858518  67.0124438
  65.4712820  58.5207945  67.8991558  65.0729103  58.6310216  67.1312378
  64.8564039  58.7290012  68.4818118  65.3211709  58.5681513  67.8722857
  64.0440722  45.1282093  60.7665698  63.4505561  45.4499090  60.2150265
  64.0815999  44.2823189  60.5586804  63.9615111  45.0506421  60.6548469
  71.0034522  38.5794985  68.2993784  70.4965387  37.8724125  68.2314962
  71.8001956  38.2488174  68.4294861  71.0461762  38.4268137  68.3092779
  66.9198538  45.0861598  64.1967448  66.6912231  45.1094299  63.3545806
  67.1796614  44.2619065  64.3162458  66.9244726  44.9677678  64.0892646
  61.2017767  46.9396071  73.7992548  60.6896670  46.3317254  74.1577579
  61.0297263  47.6552663  74.2666524  61.1007404  46.9559370  73.9208772
  56.0483481  45.3833646  76.4494910  55.8786072  46.0435021  75.9043116
  55.6049431  45.5940207  77.1707399  55.9582815  45.5119628  76.4756539
  59.9743301  43.6238144  65.4921643  60.4500667  43.9855224  64.8571825
  59.4731900  44.2794612  65.7721786  59.9708660  43.7732333  65.4398384
  73.2054662  53.0959912  61.2834648  73.5888268  53.8451268  61.5132746
  72.4098776  53.3425732  61.0246638  73.1448445  53.2429606  61.2792222
  65.0786837  44.8620315  76.2394804  65.6358267  44.6334125  75.6073269
  64.7547902  45.6225981  75.9630016  65.1133247  44.9404152  76.1051301
  52.9485546  48.2880512  71.7083400  52.4012265  47.6181157  71.8264268
  53.7377924  47.9210359  71.7726867  52.9837730  48.1345498  71.7352100
  62.7969954  47.9487969  77.2046811  63.5481281  48.2639645  77.5186365
  62.9892531  47.7467140  76.3780732  62.9361368  47.9655350  77.1290206
  62.0169954  45.7679344  58.8595027  62.3968919  45.7858973  58.0746142
  61.2762550  46.2133333  58.7385875  61.9638792  45.8361118  58.7258596
  69.6455244  44.0761535  64.4470606  69.6449471  43.9210191  65.3054882
  69.4411425  44.9224522  64.3911992  69.6155022  44.1782156  64.5658546
  51.7072515  47.5001319  68.8629423  51.5294277  47.0477928  69.5884338
  51.4191538  48.3027481  69.0467900  51.6385469  47.5523877  68.9972926
  67.3696097  48.7559037  68.1006813  67.8649762  48.0382032  68.0610833
  66.5595872  48.4529834  67.9861300  67.3239990  48.6056683  68.0780539
  62.8154708  52.6056850  60.2503817  62.0066031  52.2823524  60.2037127
  63.3229617  51.8990072  60.1832066  62.7704375  52.4538166  60.2334112
  53.4444985  50.0329043  65.9751182  52.5790505  50.0214734  65.8633953
  53.5443801  49.8459266  66.8222321  53.3319152  50.0035104  66.0840126
  69.4347915  51.5062724  70.7883942  69.8602987  50.9837146  70.2354367
  69.0704835  52.1043562  70.2672565  69.4434518  51.5172951  70.6292951
  59.0701995  59.8026942  69.5481287  59.3848554  60.6163330  69.5559069
  59.4795409  59.4177160  70.2163446  59.1770093  59.8655644  69.6485379
  66.0226515  55.2196988  67.1185099  66.4937693  55.9337251  67.2875084
  66.3586693  54.6195739  67.6544969  66.1421630  55.2368453  67.2217475
  62.9396010  39.9924459  74.0743194  63.0723915  39.1955452  74.4024170
  63.3241163  40.5190862  74.6541470  63.0152339  39.9524376  74.2086697
  66.0128365  36.9154785  70.6724287  65.2074329  36.8052515  70.9892126
  65.8835100  37.0167241  69.8154153  65.8748498  36.9138455  70.5932328
  69.4694326  43.0800277  71.2663984  68.8857314  43.5809484  70.8541552
  69.7898620  42.5729833  70.6328307  69.4307501  43.0792112  71.1122491
  62.0089125  41.9940872  61.5422659  62.8304819  42.1639185  61.3004354
  61.5458776  42.1488133  60.8188957  62.0620287  42.0422605  61.3994303
  60.5984457  39.9883634  72.3221088  61.1428870  39.6474761  72.9125429
  60.6521392  40.8469096  72.4642372  60.6873576  40.0638893  72.4302961
  56.4115015  53.7500050  69.1959896  57.0159873  53.7095884  68.5673716
  56.2042328  54.5971202  69.2263951  56.4703913  53.8688053  69.1076012
  66.2258787  56.0165995  70.4122133  67.0457161  55.8728961  70.6738428
  65.9452865  56.6412194  70.9538571  66.3055531  56.0876347  70.5310072
  51.6466298  52.7334668  69.0658819  51.5490576  51.9230939  69.3748875
  52.4295167  52.7126461  68.6805087  51.7482434  52.6101758  69.0545682
  75.7338222  72.7194585  59.3240718  75.3989591  73.3971507  58.8884941
  76.2465093  72.3299897  58.7357590  75.7603803  72.7619164  59.1727510
  65.0563063  68.3307895  65.7870278  64.8213247  67.4975547  65.6802546
  65.1948704  68.6112560  64.9731479  65.0418725  68.2491398  65.6512633
  67.3553150  60.4993625  68.6854585  66.7358182  59.9086272  68.5164600
  67.2537014  61.0905060  68.0518908  67.2490826  60.4997708  68.5659575
  74.4521046  62.2393167  63.0187048  75.1501211  62.4181295  63.5108512
  74.7673378  61.7163506  62.3957438  74.6016383  62.1886939  62.9989059
  72.6247910  57.6085564  67.1008323  72.2951240  58.0596707  66.4312022
  71.9492911  57.5301727  67.6481329  72.4758346  57.6636699  67.0831546
  78.2418318  66.9790793  59.9597609  78.1569613  67.8351760  60.1047178
  78.7302701  66.7035117  60.6279768  78.3007215  67.0648115  60.0799691
  79.8324317  53.5971087  65.3457934  79.5177758  54.2874565  65.7778356
  79.3151259  53.5415869  64.6443434  79.7088788  53.6905975  65.3054883
  79.1736751  63.5975588  61.4595344  78.6448223  63.8135221  62.1192650
  79.6961771  64.2911726  61.3796314  79.1725204  63.7318724  61.5450943
  71.0636359  67.4938804  60.2602812  70.4793574  67.9988836  60.6668676
  70.6606454  67.2681191  59.5199404  70.9175663  67.5347053  60.2107837
  75.5213573  63.7404456  58.7371733  75.7609577  63.9482440  57.9247076
  75.8429414  62.9361965  58.8460677  75.6050731  63.6518558  58.6332286
  70.8303864  55.6697852  62.5831271  71.5849832  56.0376169  62.3448321
  70.6531398  56.0437406  63.3510450  70.9158342  55.7796040  62.6616159
  69.1860928  58.0768171  59.2809384  69.0036501  58.2940052  58.4550376
  70.0486541  58.1907184  59.3367998  69.2865518  58.1258069  59.1663871
  74.8660647  55.0794582  62.3158408  75.5946808  54.9010537  61.8696564
  74.9555540  55.9212662  62.5265586  74.9867310  55.1778460  62.2811925
  68.7322955  61.3542344  57.7931857  68.0181132  61.0680523  58.2054289
  69.2166924  61.6938970  58.4338244  68.6982319  61.3623993  57.9487492
  75.9070273  69.8572298  58.1693665  76.3221422  69.5257322  57.4778161
  75.0762203  69.6241200  58.0413802  75.8458282  69.7743554  58.0484512
  78.6003663  66.1082857  57.3554866  78.5183826  66.1785044  58.2209853
  79.2383384  66.6712601  57.1638607  78.6823501  66.2021828  57.4544816
  77.0397885  57.9772046  66.9233485  76.3354211  57.4881231  67.0817405
  77.0882859  57.9894520  66.0521930  76.9427936  57.9061694  66.8172825
  60.6788366  63.0721432  65.3238728  60.7648617  62.6953301  66.1052258
  61.3064163  62.6981878  64.8458686  60.7844916  62.9606914  65.3684205
  75.7043774  66.1303311  60.3663473  76.5184412  66.4218204  60.2546244
  75.6402915  65.4763174  59.7921766  75.8146513  66.0768506  60.2652310
  72.2154497  64.8227119  59.8310674  72.5999650  64.6034825  60.5827219
  71.9666117  65.6490064  59.9611751  72.2356569  64.9125265  59.9611751
  69.9354934  56.4924055  65.1619455  69.0677360  56.5646655  65.2277064
  70.2230139  57.2946134  65.3507430  69.8494682  56.6218202  65.1994221
  69.5532876  68.7467945  63.1601261  70.3078844  69.1280984  63.3736724
  68.9603488  69.1979088  63.6147958  69.5769589  68.8696772  63.2584139
  67.8622286  59.9682315  62.6036331  67.5747082  59.5983585  61.8668278
  68.5492754  60.4377170  62.3420036  67.9211184  59.9829284  62.4551407
  72.2997428  66.9480525  63.9322867  72.1040210  67.5555259  63.3383170
  72.5231773  66.2548469  63.4514541  72.3032069  66.9358050  63.7738948
  70.6975958  63.8335263  64.0503736  71.4198610  63.9976421  63.5907542
  70.2183951  64.5544928  63.9443076  70.7339689  63.9633492  63.9669350
  77.1038744  57.0684439  64.1628037  77.8065097  56.8692187  63.6847995
  76.8382932  56.2960381  64.4696880  77.1685376  56.9247405  64.1373478
  65.4350481  60.7463527  63.4521612  65.5366617  61.5489688  63.7802588
  66.2306368  60.5450863  63.1544693  65.5678386  60.8349426  63.4556968
  79.2498853  51.7065108  67.2924583  79.3682421  52.1641572  66.5591886
  79.0761029  50.9010370  67.0060801  79.2418024  51.6558880  67.1425517
  77.1419796  69.3465111  55.7079278  77.9092781  69.4065236  55.2985130
  76.6951105  68.7745553  55.2235597  77.1893223  69.2701687  55.5756988
  69.1393274  66.1821787  64.3240239  69.2957893  66.1168590  65.1796231
  69.4793867  66.9570340  64.1118918  69.2126509  66.2870985  64.4194833
  75.6772419  65.5579671  63.1933602  76.2187964  65.0550052  63.6572223
  75.9918978  65.5044865  62.3823087  75.8036816  65.4759092  63.1417414
  73.8458868  70.9497022  60.4773630  73.9151689  70.0911561  60.6166630
  74.6247324  71.1668903  60.1492655  73.9711718  70.8549886  60.4490787
  65.7127536  63.3656737  64.6401006  66.0926500  63.7841282  63.9761273
  65.1382900  63.9470193  64.9469849  65.6838860  63.5134596  64.5877747
  76.2176417  53.5615911  68.2343245  75.3469975  53.5354632  68.1876555
  76.4716758  53.3893103  67.4169091  76.1269977  53.5326054  68.1063382
  73.1894396  65.6183878  57.1716388  73.4786921  66.3948760  57.4459963
  73.2766195  65.1072609  57.8730888  73.2448652  65.6575796  57.3158886
  73.2425557  55.5722139  69.6916716  72.7264046  54.8802331  69.8168295
  72.6819486  56.2392916  69.6379314  73.0832070  55.5685397  69.7022782
  66.8333904  62.5536679  67.1001251  66.4390602  62.6279691  66.3251361
  66.2774021  62.9394626  67.6509613  66.6936716  62.6218454  67.0668911
  78.4698851  55.5317973  66.7805130  78.6748444  55.4640281  67.6262127
  78.1425275  56.3376794  66.7126307  78.4514099  55.6403914  66.8964785
  72.2241099  60.1699061  63.0858800  72.5000833  59.4517974  62.6736367
  72.8239768  60.7683981  62.8779906  72.3534364  60.1519432  62.9939561
  81.7232539  56.0849737  66.2607895  81.1106852  56.5720140  66.6461627
  81.8196713  55.4093228  66.8045547  81.6470436  56.0568046  66.3986754
  75.7251620  57.8412579  61.3605395  76.1795366  58.0123139  62.0853239
  76.1991665  57.2280689  60.9603170  75.8619940  57.7763464  61.4079156
  73.0664640  64.5455113  62.4650402  73.8106684  64.9329389  62.7033352
  73.2125336  63.7012538  62.6290890  73.1975225  64.4785586  62.5244372
  74.9844215  56.3405372  67.4982263  74.1380260  56.5128180  67.3723613
  74.9815347  55.5354716  67.8348092  74.8591365  56.2466401  67.5293390
  77.9826015  61.0117141  61.4270075  77.4549034  61.0945885  60.7375784
  78.4421723  61.7535012  61.4234720  77.9727866  61.1337803  61.3244770
  69.9759080  59.2819660  56.4510970  69.6271885  59.9339386  56.9142520
  69.4955526  59.2676773  55.7234842  69.8529324  59.3762714  56.4122062
  61.7838849  65.6722766  69.1910398  61.6782298  65.6269611  68.3262482
  61.0339069  66.0176547  69.4724683  61.6574452  65.7163674  69.1047728
  70.5532582  57.1162089  69.1372998  70.5930953  57.6171296  69.8507706
  69.7282246  57.2072483  68.8678921  70.4372108  57.2043906  69.2023536
  70.3482989  61.9078191  61.9637015  70.4885950  62.4050655  62.6665656
  70.8465522  61.2064485  62.1051229  70.4424070  61.8780170  62.0888594
  70.3783211  62.7745302  59.2929592  71.0128291  63.3705727  59.2279053
  70.4608822  62.4748759  60.1075462  70.4839762  62.8186210  59.4032678
  71.9562194  58.7059277  59.2675034  72.2778035  58.2262360  58.6134296
  72.2189138  59.5158923  59.0765845  72.0428220  58.7549175  59.1430526
  66.8836199  64.9713143  62.5619138  67.3928429  65.5677650  62.9430443
  67.3570471  64.7039116  61.8795557  67.0279575  65.0198958  62.5173660
  75.7915572  54.5646571  65.0389090  75.1483890  54.4144217  65.6074228
  75.4514979  54.3188916  64.2738194  75.6460649  54.5058693  65.0092105
  69.2426731  61.6069401  65.4292318  68.5238720  62.0233534  65.6965182
  69.6139093  62.1723640  64.8783956  69.1918663  61.7518683  65.3875125
  75.0173305  60.6467401  60.7665698  74.4238145  60.9684398  60.2150265
  75.0548583  59.8008496  60.5586804  74.9347694  60.5691729  60.6548469
  77.8931122  60.6046906  64.1967448  77.6644815  60.6279607  63.3545806
  78.1529198  59.7804373  64.3162458  77.8977310  60.4862986  64.0892646
  70.9475884  59.1423452  65.4921643  71.4233251  59.5040532  64.8571825
  70.4464484  59.7979919  65.7721786  70.9441243  59.2917641  65.4398384
  72.9902538  61.2864652  58.8595027  73.3701502  61.3044281  58.0746142
  72.2495134  61.7318640  58.7385875  72.9371375  61.3546426  58.7258596
  80.6187828  59.5946843  64.4470606  80.6182054  59.4395499  65.3054882
  80.4144008  60.4409830  64.3911992  80.5887606  59.6967464  64.5658546
  62.6805099  63.0186627  68.8629423  62.5026860  62.5663236  69.5884338
  62.3924121  63.8212789  69.0467900  62.6118052  63.0709185  68.9972926
  73.7887292  68.1242158  60.2503817  72.9798614  67.8008831  60.2037127
  74.2962200  67.4175380  60.1832066  73.7436958  67.9723474  60.2334112
  64.4177569  65.5514351  65.9751182  63.5523088  65.5400042  65.8633953
  64.5176385  65.3644574  66.8222321  64.3051736  65.5220412  66.0840126
  76.9860949  52.4340093  70.6724287  76.1806912  52.3237823  70.9892126
  76.8567684  52.5352549  69.8154153  76.8481081  52.4323763  70.5932328
  72.9821708  57.5126180  61.5422659  73.8037403  57.6824493  61.3004354
  72.5191359  57.6673441  60.8188957  73.0352870  57.5607913  61.3994303
  37.0566336   2.6791423  50.8295218  36.3049235   2.3006962  50.6011263
  37.5052347   2.7109857  50.0814029  37.0116002   2.6277030  50.6852720
  42.5091295   3.1016793  46.2580765  42.1742664   3.7793714  45.8224987
  43.0218166   2.7122104  45.6697637  42.5356877   3.1441371  46.1067557
  42.0495587   5.0531062  52.1991877  42.4334966   5.6217960  51.6596652
  41.9854728   4.3280572  51.7197693  42.0969014   5.0306525  52.0485739
  38.6351092   2.6909815  53.0957991  38.7361455   1.8810169  53.4055118
  38.0392837   2.5966762  52.4657669  38.5623630   2.5574844  53.0484229
  38.4751831   7.6087405  54.4972847  39.1189287   8.0500569  54.8869005
  38.8008087   6.8040831  54.4103106  38.6183660   7.5552599  54.5418324
  31.8316136  -1.2869898  52.7210324  31.5966320  -2.1202246  52.6142593
  31.9701777  -1.0065232  51.9071525  31.8171799  -1.3686395  52.5852679
  39.1772411   0.6199379  49.8692708  39.4988252   1.1604587  49.2654017
  39.8244508   0.0496151  50.0014998  39.3198466   0.6158555  49.7999744
  41.4162055  -0.9914181  49.9406887  41.8555690  -1.5997080  50.3861659
  41.2666717  -1.3706807  49.1692352  41.4583520  -1.1375709  49.8926054
  41.4219789   0.4484737  56.7932605  41.7043032  -0.3463857  56.5719361
  42.1505949   0.9265325  56.8137666  41.5709353   0.4019334  56.7635620
  37.8389432  -2.1238988  47.1942859  37.2546647  -1.6188957  47.6008723
  37.4359527  -2.3496601  46.4539451  37.6928736  -2.0830740  47.1447884
  33.3933461   3.5915773  53.9966531  32.9101039   4.3166262  53.9726114
  34.2056779   3.8891903  54.1076688  33.4424208   3.7418127  54.0093810
  39.4647615   2.3847954  56.6016345  38.9474556   2.0255369  55.9977653
  40.1622006   1.8610128  56.6122411  39.4913196   2.2545641  56.5146604
  40.6881667   2.1173928  61.5450180  40.1252501   1.7046537  62.0689841
  41.4502690   2.0426833  61.9643324  40.7176115   2.0451328  61.6843181
  36.2477658   4.1071949  54.1486810  36.9498237   3.5923938  54.2059567
  36.1675141   4.4346100  54.9533686  36.3401418   4.0786175  54.2759603
  35.5728433   0.2978301  53.6572418  36.4117333   0.5301234  53.7046180
  35.6040203  -0.5717388  53.5879454  35.7010151   0.2035247  53.6537063
  36.1981136   0.7179176  57.9585724  36.7379361   0.5750307  58.6289096
  35.5151083   1.1175927  58.3269750  36.1773290   0.7558847  58.1120146
  43.2331266   2.2651787  65.2276302  44.0171683   2.3782634  65.5932044
  43.0327861   1.4392924  65.4234987  43.3197291   2.1598506  65.3110688
  31.6018282  -3.0620533  58.1120145  31.3356697  -3.8781417  58.2711136
  31.6156846  -3.0167378  57.2415661  31.5643004  -3.1763629  58.0073627
  43.3901659   4.1761889  58.8742757  42.5916905   3.9361389  59.1316626
  43.8387671   4.2276282  59.6209805  43.3376271   4.1484280  59.0227681
  42.6823346   0.2394505  45.1033712  43.0974495  -0.0920471  44.4118208
  41.8515276   0.0063407  44.9753848  42.6211355   0.1565761  44.9824559
  32.0111695  -2.2761754  55.3931890  31.8287268  -2.3014868  54.5404182
  32.7461364  -1.8062816  55.4320799  32.0925759  -2.2100392  55.2729808
  38.3504755  -0.0152964  52.4275832  38.9878702  -0.2541216  52.9727625
  38.7759827   0.1884195  51.6928992  38.5080921  -0.0201954  52.3992989
  33.0417397   2.2235373  56.3110136  33.0821543   2.4950224  55.4829915
  33.6011921   2.7477281  56.7267923  33.1300743   2.3411128  56.2502024
  40.7326227   0.4619459  54.1069618  40.8065235   0.2994631  54.9611468
  41.5495733   0.6509648  53.8630100  40.8642586   0.4656201  54.1967644
  34.4931984   0.8077322  51.1364062  33.6670101   1.0539059  51.0098340
  34.5543975   0.7289403  52.0026120  34.3806151   0.8322271  51.2453006
  39.2730813   3.4254202  48.8383091  39.5629111   3.0343183  48.1142318
  40.0034294   3.6070907  49.2788367  39.4237697   3.3948016  48.7965898
  39.8625558  -1.7728052  59.9236222  39.3637252  -1.0612284  60.0021110
  40.6725782  -1.4527386  59.8854384  39.9081665  -1.6201204  59.9292790
  37.2136728   5.4021584  51.9043241  36.9937024   5.1118939  52.6969908
  36.9931250   4.7436539  51.3761154  37.1484322   5.2621293  51.9432150
  36.1253675  -2.5105099  54.1698943  35.8366924  -3.1367628  54.7044670
  36.9937024  -2.5684812  54.2363623  36.2113927  -2.6117555  54.2589897
  39.3804684   6.7750974  50.6873934  40.0328742   6.2427417  50.9164960
  38.6830293   6.4219627  51.0741808  39.3735402   6.6440497  50.7786101
  36.3285949  -0.8709848  50.0941308  37.0831917  -0.4896809  50.3076770
  35.7356561  -0.4198704  50.5488004  36.3522662  -0.7481021  50.1924186
  37.6484175   0.2998713  55.4681423  37.1264929   0.4399005  56.1533288
  38.0358196  -0.4590622  55.6583541  37.6287876   0.2084237  55.5982500
  43.8451180   2.0394173  49.4541992  43.6037856   1.3062033  49.0469057
  44.0252513   2.5881029  48.8008325  43.8358804   2.0116564  49.2972215
  35.1236648  -3.3784457  60.0897923  35.6357745  -3.1000204  59.4406682
  34.8372990  -2.6395163  60.4560736  35.1571511  -3.2282104  60.0487801
  38.2130661   4.0059493  58.5511279  38.3620225   3.4462409  57.8984683
  38.9930663   4.0851495  58.9343798  38.3504754   3.9345059  58.5108228
  40.7383961   4.1774136  59.8295770  40.6627633   3.5082947  60.3846558
  40.6673821   4.8791924  60.3436436  40.7164568   4.1819044  59.9872618
  41.3954208   2.6975135  50.6619376  42.1604099   2.4284779  50.3402040
  41.2932298   2.2125145  51.3789438  41.4935704   2.5864700  50.7199203
  43.9172869  -0.2712681  42.6419325  44.6845854  -0.2112556  42.2325177
  43.4704178  -0.8432240  42.1575643  43.9646296  -0.3476105  42.5097035
  46.8167399   1.3907107  47.1582235  46.8987236   2.1974093  46.8343686
  47.3017141   1.4103066  47.8823009  46.9004557   1.5127769  47.2169134
  40.1275596   7.5842456  58.2873770  40.6171526   6.8853245  58.1049435
  39.5559828   7.2866326  58.8749828  40.1160126   7.4368680  58.3474811
  35.9146347  -3.4356006  51.2580286  36.0710966  -3.5009203  52.1136278
  36.2546940  -2.6607453  51.0458965  35.9879582  -3.3306807  51.3534880
  40.6211942   1.3319230  47.4113677  40.6904762   0.4733768  47.5506677
  41.4000397   1.5491110  47.0832701  40.7464792   1.2372093  47.3830834
  45.0119429   3.7556931  51.6250170  44.6199221   3.4523646  50.9073036
  45.1672501   4.5926021  51.4355124  44.9773019   3.8340767  51.4906667
  45.1759104   0.3206920  51.5656201  44.8173759   0.4921562  52.3420233
  44.6897815   0.7820125  51.0084199  45.0517801   0.4145891  51.5981470
  46.3363843   1.2110816  62.5123402  46.9743564   0.7171011  62.1785858
  45.6937935   1.1388216  61.9275628  46.3358070   1.1269824  62.3765757
  46.3918100   1.9030624  59.1528758  47.1810478   1.5519689  59.2730840
  46.5661698   2.7167012  58.8905392  46.5338382   1.9716481  59.1316626
  38.0046426   0.4570469  60.1626243  37.8966781   0.4672532  61.0288301
  38.2142208   1.2825250  59.9731196  38.0196537   0.5811544  60.2630334
  36.0220218  -2.2916888  57.6248180  35.4308151  -1.6507390  57.5951195
  36.7841242  -1.8679271  57.5979480  36.0468479  -2.1341050  57.6163327
  45.7809734   3.1592423  55.0580205  45.5829423   3.6483238  54.3636416
  45.1597445   3.3633665  55.6364338  45.6597299   3.2608962  55.0403428
  33.2796080  -0.6182791  58.7682096  32.7496005  -1.3090352  58.8177071
  33.5521174  -0.6272605  57.9394805  33.2420803  -0.7215659  58.6529512
  44.3116171  -0.0357088  47.4919779  45.0350370   0.4301025  47.3484352
  43.8716762   0.0316521  46.7417376  44.3531863   0.0426748  47.3604560
  28.5591923  -3.9455026  56.1250445  28.4535372  -3.9908182  55.2602529
  27.8092142  -3.6001246  56.4064730  28.4327525  -3.9014118  56.0387774
  41.9612240   0.1100359  59.7213897  41.4537331   0.6636206  60.1654527
  41.6638886   0.1708649  58.9032671  41.8417125   0.2006670  59.6662353
  44.5720020   4.0263617  47.6517840  43.8549330   3.8524479  47.1865077
  45.2226758   3.7916189  47.1193326  44.5621871   3.9659409  47.5047058
  41.2054725   5.0424917  56.6270903  40.9820380   4.2843747  56.9954930
  40.7164569   5.0722938  55.9051343  41.0998174   4.9347142  56.5747644
  39.8533182   5.2625375  54.0807988  39.4393581   4.5999506  53.6911830
  40.5380557   5.4103234  53.5603682  39.8931554   5.1866034  53.9464485
  43.2198476   4.4215461  54.8331605  42.8214760   4.5317731  54.0652425
  42.6049696   4.6297527  55.4158164  43.0697366   4.4689029  54.8062904
  31.1930642  -4.0663442  52.9091229  30.3276162  -4.0777751  52.7974000
  31.2929458  -4.2533219  53.7562368  31.0804809  -4.0957380  53.0180173
  36.8187652   5.7034457  56.4821334  37.1334211   6.5170845  56.4899116
  37.2281065   5.3184676  57.1503493  36.9255750   5.7663159  56.5825426
  43.7712172   1.1204504  54.0525146  44.2423350   1.8344766  54.2215131
  44.1072350   0.5203254  54.5885016  43.8907287   1.1375968  54.1557522
  45.8589156   2.7305817  66.2317218  45.9686122   1.9414378  66.5873965
  46.1880053   2.6411753  65.4291556  45.9241562   2.6011670  66.1659609
  44.4086118   0.9122438  60.8152839  43.8607064   0.2880322  60.5472904
  44.8699147   1.1016710  60.0996918  44.3953327   0.8481488  60.6703270
  34.1600672  -0.3492435  56.1299942  34.7645529  -0.3896600  55.5013763
  33.9527985   0.4978718  56.1603998  34.2189569  -0.2304432  56.0416059
  43.9744444   1.9173511  57.3462180  44.7942818   1.7736477  57.6078475
  43.6938522   2.5419710  57.8878618  44.0541188   1.9883863  57.4650119
  29.3951954  -1.3657817  55.9998866  29.2976232  -2.1761545  56.3088922
  30.1780824  -1.3866024  55.6145134  29.4968091  -1.4890727  55.9885729
  60.4458095   9.5738362  50.3105056  60.4152099  10.4282999  50.4823326
  61.0439443   9.2733655  50.8691200  60.5295253   9.6554859  50.4179859
  53.6457779   8.6614013  55.0657987  52.7895675   8.8222512  55.1167103
  53.6925433   7.7906077  55.0863048  53.5256891   8.5564815  55.0764053
  48.0298919  18.1976731  50.8295218  47.2781819  17.8192270  50.6011263
  48.4784931  18.2295165  50.0814029  47.9848586  18.1462338  50.6852720
  56.9551496  14.9300539  64.6718443  57.6618263  14.4352570  64.8005377
  57.1439431  15.3709620  63.9421101  57.0879402  14.9218889  64.5827488
  53.4823879  18.6202101  46.2580765  53.1475248  19.2979022  45.8224987
  53.9950750  18.2307412  45.6697637  53.5089460  18.6626679  46.1067557
  53.0228170  20.5716369  52.1991877  53.4067550  21.1403268  51.6596652
  52.9587312  19.8465880  51.7197693  53.0701598  20.5491833  52.0485739
  56.4909600  10.7206057  57.7089638  57.0365561  11.3991144  57.7683608
  56.4326477  10.5793518  56.8491220  56.5625515  10.7998059  57.5901699
  49.6083675  18.2095123  53.0957991  49.7094038  17.3995477  53.4055118
  49.0125421  18.1152070  52.4657669  49.5356214  18.0760151  53.0484229
  58.2674669  12.1490664  48.5823366  58.1514195  12.8998350  49.0115504
  59.0630556  11.8914618  48.8319453  58.3679259  12.2225511  48.6827458
  49.4484415  23.1272713  54.4972847  50.0921870  23.5685877  54.8869005
  49.7740670  22.3226139  54.4103106  49.5916244  23.0737907  54.5418324
  42.8048720  14.2315410  52.7210324  42.5698904  13.3983062  52.6142593
  42.9434360  14.5120076  51.9071525  42.7904382  14.1498913  52.5852679
  45.1038807   6.4001141  55.6194632  44.4843839   5.8093788  55.4504647
  45.0022671   6.9912576  54.9858955  44.9976483   6.4005223  55.4999622
  50.1504995  16.1384687  49.8692708  50.4720836  16.6789895  49.2654017
  50.7977091  15.5681459  50.0014998  50.2931050  16.1343863  49.7999744
  52.2006703   8.1400682  49.9527095  52.8986867   8.3188810  50.4448558
  52.5159035   7.6171022  49.3297485  52.3502040   8.0894454  49.9329105
  44.8307940   9.9453422  57.8638201  44.7066637  10.5315868  58.4988020
  45.4826225   9.4513618  58.1650476  44.9081589   9.9592227  58.0024130
  52.3894638  14.5271127  49.9406887  52.8288274  13.9188228  50.3861659
  52.2399301  14.1478501  49.1692352  52.4316104  14.3809599  49.8926054
  49.8566281  13.1215139  57.1425712  50.5015284  12.6287582  56.8236661
  50.0968058  13.2639926  57.9691790  49.9876866  13.0692581  57.2175245
  52.3952372  15.9670045  56.7932605  52.6775615  15.1721451  56.5719361
  53.1238533  16.4450633  56.8137666  52.5441936  15.9204642  56.7635620
  50.3733566   3.5093079  54.0348370  50.0436896   3.9604223  53.3652069
  49.6978568   3.4309242  54.5821376  50.2244003   3.5644214  54.0171593
  55.9903975  12.8798309  46.8937656  55.9055270  13.7359275  47.0387225
  56.4788358  12.6042633  47.5619815  56.0492872  12.9655630  47.0139737
  56.9222408   9.4983103  48.3935391  56.3933879   9.7142736  49.0532697
  57.4447428  10.1919241  48.3136360  56.9210861   9.6326240  48.4790990
  62.3770461  15.0729407  53.7668435  61.5468164  15.2840051  53.9301852
  62.3279713  14.2466462  53.4910719  62.2477196  14.9819014  53.7505801
  48.8122016  13.3946320  47.1942859  48.2279231  13.8996351  47.6008723
  48.4092111  13.1688707  46.4539451  48.6661320  13.4354568  47.1447884
  44.3666044  19.1101081  53.9966531  43.8833623  19.8351570  53.9726114
  45.1789363  19.4077211  54.1076688  44.4156792  19.2603434  54.0093810
  50.4380198  17.9033261  56.6016345  49.9207140  17.5440676  55.9977653
  51.1354590  17.3795436  56.6122411  50.4645780  17.7730949  56.5146604
  54.0943790  18.3528076  62.5632518  54.1827136  18.1654216  63.4110728
  54.5233503  17.7065505  62.1637365  54.1705893  18.2291083  62.6304270
  51.6614250  17.6359235  61.5450180  51.0985085  17.2231845  62.0689841
  52.4235274  17.5612141  61.9643324  51.6908699  17.5636636  61.6843181
  53.2699230   9.6411972  45.6711780  53.5095234   9.8489955  44.8587123
  53.5915071   8.8369480  45.7800724  53.3536388   9.5526073  45.5672333
  48.5789520   1.5705367  49.5171318  49.3335488   1.9383684  49.2788368
  48.4017055   1.9444922  50.2850497  48.6643999   1.6803555  49.5956206
  47.2210242  19.6257257  54.1486810  47.9230821  19.1109246  54.2059567
  47.1407725  19.9531408  54.9533686  47.3134002  19.5971483  54.2759603
  61.8724419   7.7199808  57.5618857  61.0352840   7.7901995  57.7966451
  61.8412650   7.7224303  56.6893159  61.7442702   7.7310035  57.4678405
  48.2689148   9.8632844  63.2767225  48.4409652   9.7538738  64.1252507
  48.8058506  10.5087249  63.0398418  48.3734152   9.9424845  63.3672322
  46.9346585   3.9775686  46.2149431  46.7522158   4.1947567  45.3890423
  47.7972198   4.0914699  46.2708045  47.0351175   4.0265584  46.1003918
  46.5461017  15.8163609  53.6572418  47.3849916  16.0486541  53.7046180
  46.5772786  14.9467920  53.5879454  46.6742735  15.7220555  53.6537063
  47.1713720  16.2364484  57.9585724  47.7111945  16.0935615  58.6289096
  46.4883666  16.6361235  58.3269750  47.1505874  16.2744155  58.1120146
  56.5954605  11.9155484  53.1530748  57.3512120  12.3486999  53.1919657
  56.7016929  11.2660254  53.7265384  56.7224776  11.8832968  53.2428774
  59.6334776  15.7428762  53.9033151  59.1970008  15.7465504  54.6592123
  59.2997691  16.4234261  53.4712729  59.5197396  15.8441218  53.9513984
  54.2063850  17.7837095  65.2276302  54.9904266  17.8967942  65.5932044
  54.0060444  16.9578232  65.4234987  54.2929875  17.6783814  65.3110688
  42.5750865  12.4564775  58.1120145  42.3089280  11.6403891  58.2711136
  42.5889429  12.5017930  57.2415661  42.5375587  12.3421679  58.0073627
  46.4808612   7.2549859  44.7271904  45.7666789   6.9688039  45.1394336
  46.9652581   7.5946485  45.3678291  46.4467975   7.2631509  44.8827539
  47.3249471   5.9943153  60.7587153  46.6321268   5.5240133  61.0047885
  47.9409799   5.7681457  61.3328860  47.3134001   5.8910285  60.8796306
  54.3634243  19.6947197  58.8742757  53.5649489  19.4546697  59.1316626
  54.8120254  19.7461589  59.6209805  54.3108854  19.6669588  59.0227681
  62.7679122  12.4609682  52.7952789  63.4295556  11.9000350  52.6948697
  62.1270534  11.9661712  53.1205480  62.7707990  12.3046091  52.8285129
  53.6555930  15.7579813  45.1033712  54.0707078  15.4264837  44.4118208
  52.8247860  15.5248715  44.9753848  53.5943939  15.6751069  44.9824559
  42.9844279  13.2423554  55.3931890  42.8019852  13.2170440  54.5404182
  43.7193948  13.7122492  55.4320799  43.0658343  13.3084916  55.2729808
  59.0543953  13.4775064  52.5364777  59.2899542  13.6220263  51.7091628
  59.2033517  14.2417472  52.9296291  59.1109756  13.6114118  52.4728381
  46.0490030   9.9608557  61.9013998  46.7730003   9.9461588  62.3878893
  46.1506167  10.6703912  61.4035967  46.1708239  10.0633260  61.8992785
  60.8834410  12.3176730  50.3734381  61.2142627  12.8504370  49.7674476
  61.4567498  12.3715618  51.0296332  61.0168089  12.4046299  50.3812163
  53.4234980  13.4407642  66.7662945  52.6307961  13.7551153  66.9515565
  53.5383907  13.6559110  65.9283730  53.3230390  13.5191478  66.6701280
  56.0966299  10.1641633  51.0557961  56.1913153  10.9030927  51.5097587
  55.4725142   9.7359108  51.4892526  56.0175329  10.2102953  51.1866109
  54.3518773  13.3427845  61.7048242  54.9257634  12.7055089  61.8596806
  54.2733576  13.3431928  60.8357900  54.4252007  13.2492957  61.5994653
  42.9515189  10.1217055  55.5430956  43.5288692   9.9853505  56.1823202
  42.2529251   9.6652839  55.7976541  42.9336210  10.0339321  55.6753246
  56.3489320  12.0090372  44.2894913  56.2669483  12.0792560  45.1549900
  56.9869041  12.5720116  44.0978654  56.4309157  12.1029344  44.3884863
  49.7082491  11.7751110  53.7569440  49.4501736  10.9422845  53.7300739
  49.7630974  12.0008723  52.9161940  49.6782269  11.6848882  53.6289576
  54.7883541   3.8779561  53.8573532  54.0839868   3.3888747  54.0157451
  54.8368516   3.8902036  52.9861977  54.6913593   3.8069209  53.7512872
  48.6817203   9.3288873  54.2434334  48.1066795   9.4881041  54.8798295
  48.3052880   8.6924282  53.7802785  48.5420016   9.2586686  54.2688893
  52.3490492   7.8012222  59.1026713  51.9604925   7.3766440  58.4478904
  51.6845190   8.0494372  59.6103739  52.1937420   7.7750943  59.0814581
  61.9913761   7.5587227  51.8774543  61.7350326   6.7467168  51.6872426
  62.8343075   7.5664794  51.6504730  62.0779787   7.4399224  51.8159360
  38.4274022   8.9728948  52.2578775  38.5134274   8.5960816  53.0392305
  39.0549820   8.5989393  51.7798733  38.5330573   8.8614430  52.3024252
  53.4529430  12.0310827  47.3003520  54.2670069  12.3225720  47.1886291
  53.3888572  11.3770689  46.7261813  53.5632169  11.9776021  47.1992357
  59.6738920  14.7136823  61.7133095  59.4377558  13.8824888  61.5945156
  60.3182149  14.6622430  62.2987940  59.7333591  14.5834511  61.7818989
  49.3237339  15.5032344  52.4275832  49.9611286  15.2644092  52.9727625
  49.7492410  15.7069503  51.6928992  49.4813505  15.4983354  52.3992989
  44.0149981  17.7420681  56.3110136  44.0554126  18.0135532  55.4829915
  44.5744505  18.2662589  56.7267923  44.1033327  17.8596436  56.2502024
  49.9640154  10.7234634  46.7650721  50.3485306  10.5042341  47.5167266
  49.7151774  11.5497579  46.8951798  49.9842226  10.8132780  46.8951798
  50.1308694   4.0041049  66.4813305  49.8162135   4.7740612  66.2182868
  49.8098627   3.4411305  65.8965532  50.0367613   4.0351318  66.3554655
  60.6975341  14.4981272  57.7761390  60.3921158  15.2309328  58.1374705
  59.9781557  14.0919201  57.4954176  60.5462683  14.5463005  57.7874527
  51.7058811  15.9804767  54.1069618  51.7797819  15.8179939  54.9611468
  52.5228317  16.1694956  53.8630100  51.8375169  15.9841509  54.1967644
  66.3977133  11.1374272  57.1029734  66.3301634  11.1570231  56.2332321
  66.3832796  11.9804600  57.3285405  66.3855890  11.2648007  57.0082211
  45.4664567  16.3262630  51.1364062  44.6402685  16.5724367  51.0098340
  45.5276558  16.2474710  52.0026120  45.3538734  16.3507579  51.2453006
  47.6840591   2.3931571  52.0959502  46.8163016   2.4654170  52.1617111
  47.9715795   3.1953650  52.2847477  47.5980339   2.5225718  52.1334268
  50.2463396  18.9439510  48.8383091  50.5361695  18.5528491  48.1142318
  50.9766877  19.1256215  49.2788367  50.3970280  18.9133324  48.7965898
  64.1835751   9.9118659  55.3776328  64.7343672   9.2786728  55.6173421
  64.1679866  10.4434051  56.0691833  64.2620947   9.8967607  55.5155187
  50.8358141  13.7457256  59.9236222  50.3369835  14.4573023  60.0021110
  51.6458366  14.0657922  59.8854384  50.8814248  13.8984104  59.9292790
  48.1869312  20.9206892  51.9043241  47.9669607  20.6304247  52.6969908
  47.9663834  20.2621847  51.3761154  48.1216906  20.7806601  51.9432150
  47.0986259  13.0080209  54.1698943  46.8099508  12.3817680  54.7044670
  47.9669607  12.9500496  54.2363623  47.1846511  12.9067753  54.2589897
  57.8864157   8.1514992  54.4880925  57.5428923   7.4305327  54.8388174
  57.9857199   7.9428843  53.6459283  57.8506200   8.0139195  54.4152605
  50.3537268  22.2936282  50.6873934  51.0061326  21.7612725  50.9164960
  49.6562876  21.9404935  51.0741808  50.3467986  22.1625805  50.7786101
  47.3018532  14.6475460  50.0941308  48.0564500  15.0288499  50.3076770
  46.7089145  15.0986603  50.5488004  47.3255246  14.7704287  50.1924186
  58.3477186  14.6140696  50.0304913  58.9135219  15.2733906  49.9463456
  57.7005089  14.9590394  50.5021315  58.3355942  14.7622638  50.0877669
  49.7625199   6.6038300  65.2198520  48.9524975   6.9096080  65.1088362
  50.2399886   7.3243883  65.3351104  49.7128678   6.7552901  65.2205591
  48.6216759  15.8184021  55.4681423  48.0997513  15.9584313  56.1533288
  49.0090779  15.0594685  55.6583541  48.6020460  15.7269545  55.5982500
  45.6107943   5.8689830  49.5376378  45.3232739   5.4991100  48.8008325
  46.2978411   6.3384685  49.2760083  45.6696840   5.8836799  49.3891454
  54.8183764  17.5579480  49.4541992  54.5770440  16.8247341  49.0469057
  54.9985097  18.1066337  48.8008325  54.8091388  17.5301872  49.2972215
  50.0483085  12.8488040  50.8662914  49.8525867  13.4562775  50.2723217
  50.2717430  12.1555984  50.3854588  50.0517726  12.8365566  50.7078995
  48.4461615   9.7342778  50.9843783  49.1684267   9.8983936  50.5247589
  47.9669607  10.4552443  50.8783122  48.4825345   9.8641008  50.9009397
  56.4055122   6.0706577  56.3640468  55.5666223   6.0967856  56.1278731
  56.4759490   6.7177312  56.9445814  56.2923516   6.1702703  56.4149584
  46.0969231  12.1400851  60.0897923  46.6090328  12.4185104  59.4406682
  45.8105574  12.8790145  60.4560736  46.1304094  12.2903204  60.0487801
  60.2812646  11.2774564  53.6501709  60.1946621  11.4329990  54.5036488
  59.8263126  11.9212639  53.2761114  60.2015903  11.3950319  53.7208816
  43.1836138   6.6471042  50.3861659  43.2852274   7.4497204  50.7142634
  43.9792024   6.4458378  50.0884740  43.3164043   6.7356941  50.3897014
  49.6152957   4.2327239  60.1498964  49.4236154   4.2482374  60.9998388
  50.4651553   4.4290913  60.1265619  49.7128679   4.2641590  60.2722259
  43.9999870   6.7618221  58.1282781  43.8585362   5.9102161  58.2527289
  44.2840433   6.8046881  57.3044987  44.0207716   6.6417971  58.0250405
  54.1538462   8.5985311  52.2727269  53.9073176   8.5181062  53.1064058
  54.4823585   7.8138779  52.0789796  54.1659706   8.4711576  52.3674792
  58.0486511  15.3068670  56.0614050  57.9100870  16.0049716  56.5662792
  57.2686509  15.1517327  55.7050232  57.9129738  15.3868837  56.0840324
  56.3864596  11.6065046  62.3136432  56.3812635  10.7344862  62.3178858
  57.0925590  11.8053215  61.8405887  56.4909600  11.5068920  62.2443467
  50.1135489  11.3342029  61.6850252  50.2578865  11.9143238  61.0493362
  50.4611138  11.7118326  62.3900107  50.1862951  11.4762733  61.6949247
  52.2855407  10.5332198  59.4675384  51.5378721  10.7263212  59.0623662
  52.4396932   9.7077417  59.2299505  52.1977834  10.4397309  59.3720789
  49.1863244  19.5244801  58.5511279  49.3352808  18.9647717  57.8984683
  49.9663246  19.6036803  58.9343798  49.3237338  19.4530367  58.5108228
  59.5439884  14.6646924  46.8230549  59.1646692  13.8784062  46.8159839
  58.8806129  15.2133781  46.6802194  59.3898359  14.6291748  46.8011346
  51.7116545  19.6959444  59.8295770  51.6360216  19.0268255  60.3846558
  51.6406404  20.3977232  60.3436436  51.6897152  19.7004351  59.9872618
  52.5257184   4.4282748  60.3570787  52.9829798   5.1606723  60.4843579
  52.6013513   4.0049214  61.1158043  52.6048154   4.4739987  60.4871864
  44.7690175   4.6748568  61.4460231  44.2332364   4.0628926  61.7620998
  44.8307940   5.2496704  62.0993898  44.6985808   4.6695496  61.5895658
  52.3686792  18.2160443  50.6619376  53.1336683  17.9470087  50.3402040
  52.2664882  17.7310453  51.3789438  52.4668287  18.1050008  50.7199203
  50.4039562   6.4184852  57.2012611  49.6135636   6.2376313  57.5229947
  50.8000185   5.6411805  57.1842906  50.3456438   6.2772313  57.2465160
  54.8905452  15.2472627  42.6419325  55.6578438  15.3072752  42.2325177
  54.4436761  14.6753068  42.1575643  54.9378880  15.1709202  42.5097035
  55.7883248  14.0527283  54.9272057  55.1128250  13.8212515  55.4285444
  55.7975624  13.4448466  54.3014162  55.6901753  13.9286208  54.9088209
  52.9177392   8.8945112  61.6836110  52.8536533   9.7555068  61.5556247
  53.0574580   8.5777105  60.8831661  52.9292862   8.9745278  61.5464323
  57.7899983  16.9092415  47.1582235  57.8719820  17.7159401  46.8343686
  58.2749725  16.9288374  47.8823009  57.8737140  17.0313077  47.2169134
  51.5996486  11.5877251  55.8252313  51.1758735  11.7881750  55.0891331
  51.4241341  10.7406099  55.9376613  51.5107366  11.4926032  55.7326003
  51.1008179  23.1027764  58.2873770  51.5904110  22.4038553  58.1049435
  50.5292412  22.8051634  58.8749828  51.0892709  22.9553988  58.3474811
  46.8878931  12.0829302  51.2580286  47.0443550  12.0176105  52.1136278
  47.2279524  12.8577855  51.0458965  46.9612166  12.1878500  51.3534880
  53.4258075  11.4587186  50.1273649  53.9673621  10.9557567  50.5912269
  53.7404634  11.4052381  49.3163134  53.5522473  11.3766607  50.0757461
  57.2975183  15.6689833  67.2400561  58.1110048  15.3974982  67.4005694
  57.1370149  15.3697373  66.4360757  57.3945131  15.5844759  67.1445967
  51.5944525  16.8504537  47.4113677  51.6637345  15.9919076  47.5506677
  52.3732980  17.0676418  47.0832701  51.7197375  16.7557401  47.3830834
  54.5747345   6.3523490  60.1795949  54.7889314   5.7134405  59.6259303
  53.9581244   6.7969314  59.7503811  54.5152674   6.3233634  60.0346380
  55.9852013  19.2742239  51.6250170  55.5931804  18.9708954  50.9073036
  56.1405085  20.1111329  51.4355124  55.9505603  19.3526075  51.4906667
  43.4613192   9.2664253  51.5741053  43.8412157   9.6848798  50.9101320
  42.8868557   9.8477708  51.8809896  43.4324517   9.4142112  51.5217794
  56.7386433   7.9612556  61.1179256  55.9263115   7.6538446  61.1992429
  57.1976367   7.4811556  61.6821969  56.6866818   7.8449048  61.2133851
  56.1491687  15.8392228  51.5656201  55.7906342  16.0106870  52.3420233
  55.6630398  16.3005433  51.0084199  56.0250384  15.9331199  51.5981470
  50.9380053  11.5191393  44.1056435  51.2272578  12.2956275  44.3800009
  51.0251852  11.0080124  44.8070934  50.9934309  11.5583311  44.2498933
  53.8339940   9.3672627  65.9007959  54.3039571   9.9914743  66.2875833
  53.8801820   8.6989603  66.4601173  53.9107816   9.3607307  66.0408030
  57.3096427  16.7296124  62.5123402  57.9476147  16.2356319  62.1785858
  56.6670518  16.6573524  61.9275628  57.3090653  16.6455132  62.3765757
  59.0353427   8.5785269  57.0789317  58.6081035   8.4911618  56.3237417
  58.3979480   8.6863045  57.6644161  58.8783034   8.5817929  57.0534759
  52.5274504   3.6860795  63.0186287  53.3547933   3.4145944  63.0744901
  52.5482350   4.4821636  63.3750105  52.6527354   3.7640549  63.0801469
  57.3650683  17.4215932  59.1528758  58.1543062  17.0704997  59.2730840
  57.5394281  18.2352320  58.8905392  57.5070965  17.4901789  59.1316626
  47.1043994  10.8324658  56.2056547  46.2632000  10.7328532  56.4135441
  47.3134002  11.6020138  56.5570868  47.0108686  10.9316701  56.2883862
  44.5819561   8.4544194  54.0341298  44.1876259   8.5287206  53.2591408
  44.0259678   8.8402141  54.5849660  44.4422373   8.5225969  54.0008958
  50.9160659   8.7606057  55.4554145  50.6123796   8.2062045  56.0564552
  50.2140079   8.9398267  54.9682179  50.7676869   8.7050839  55.4723850
  49.9726756   6.0706577  50.0198847  50.2486490   5.3525489  49.6076414
  50.5725425   6.6691496  49.8119953  50.1020020   6.0526947  49.9279608
  48.9779010  15.9755777  60.1626243  48.8699365  15.9857840  61.0288301
  49.1874791  16.8010558  59.9731196  48.9929121  16.0996852  60.2630334
  53.4737276   3.7420094  48.2945442  53.9281023   3.9130654  49.0193286
  53.9477322   3.1288205  47.8943217  53.6105596   3.6770979  48.3419203
  46.9952802  13.2268420  57.6248180  46.4040735  13.8677918  57.5951195
  47.7573825  13.6506037  57.5979480  47.0201062  13.3844258  57.6163327
  47.3913425   4.3870418  58.2916198  47.8514906   4.4609347  59.0291321
  47.4369531   5.1851672  57.9416019  47.4663980   4.5164565  58.3488954
  49.0396774   5.0537112  62.8588225  48.6482339   4.4070460  63.2944003
  49.2082637   5.6448548  63.4782480  49.0067685   5.0451380  63.0150931
  63.1143223  13.0574190  58.6225458  63.1726347  13.5060838  59.3685435
  62.4809691  13.4673002  58.1855538  63.0294518  13.1847924  58.6678007
  56.7542318  18.6777731  55.0580205  56.5562007  19.1668546  54.3636416
  56.1330029  18.8818973  55.6364338  56.6329882  18.7794270  55.0403428
  50.8150296  10.4462628  49.3990449  51.5592341  10.8336905  49.6373399
  50.9610992   9.6020054  49.5630937  50.9460881  10.3793101  49.4584419
  53.8028172   6.0188102  55.2984368  53.3288126   5.4929864  55.8089679
  54.1746308   5.4717574  54.7299230  53.7878061   5.8604098  55.2899515
  44.1801202   8.0159608  60.6667914  45.0426815   7.9155317  60.5805244
  43.8492985   7.4354318  60.1053486  44.2586399   7.9151235  60.5713320
  60.0664903  11.0790477  56.7091149  59.8263126  10.2396892  56.7133575
  60.5456910  11.1590644  57.4331922  60.1017086  10.9671877  56.8165951
  55.7311672   6.9124656  48.3610122  55.2034690   6.9953400  47.6715831
  56.1907380   7.6542528  48.3574767  55.7213522   7.0345319  48.2584817
  62.0670090   7.8591934  54.6620408  61.8279860   7.8187769  53.8241192
  62.2303991   8.7063086  54.7886129  62.0560393   7.9784019  54.5573890
  58.6716120  12.2441884  60.5925453  59.3950319  11.7914410  60.4136473
  58.4066082  12.5246549  59.8097781  58.7397393  12.2192852  60.4504168
  47.5402988   6.8402057  57.3278332  46.9156058   6.8520449  56.7204285
  47.2048583   7.3162232  57.9769572  47.3988480   6.9120574  57.3334901
  47.7244737   5.1827176  43.3851017  47.3757541   5.8346901  43.8482566
  47.2441183   5.1684289  42.6574888  47.6014981   5.2770229  43.3462108
  44.2528664  14.9002517  58.7682096  43.7228588  14.2094956  58.8177071
  44.5253757  14.8912703  57.9394805  44.2153386  14.7969649  58.6529512
  55.2848754  15.4828220  47.4919779  56.0082953  15.9486333  47.3484352
  54.8449345  15.5501829  46.7417376  55.3264447  15.5612056  47.3604560
  54.4534909  12.3425762  58.7420468  53.8391903  11.7983812  59.0369103
  54.9702194  11.8289998  58.2626284  54.4390572  12.1862171  58.7144696
  53.6931207  13.4130032  56.4764767  53.2658815  12.7879751  56.0430202
  53.6856151  13.1304954  57.3023774  53.6290348  13.2782813  56.5344594
  46.8093734   8.4495205  59.5453201  46.9687220   7.6938529  59.9504923
  46.6286627   8.9986145  60.1993938  46.8059093   8.4189019  59.7015907
  52.0216916   4.2898787  56.6907301  52.0459403   3.7558899  56.0020081
  52.2728390   3.7816095  57.3532891  52.0626835   4.1359690  56.6871945
  39.5324506  11.5730282  56.1250445  39.4267955  11.5277126  55.2602529
  38.7824726  11.9184062  56.4064730  39.4060109  11.6171190  56.0387774
  48.3018238   3.0169605  56.0713045  48.3416610   3.5178811  56.7847752
  47.4767903   3.1079998  55.8018968  48.1857764   3.1051421  56.1363583
  50.4847851  12.5830345  64.1733340  49.6343482  12.7202059  64.3090984
  50.6475979  11.8494123  64.6181041  50.3831715  12.4944446  64.2588939
  49.7232602   9.5330115  58.3686944  48.8924532   9.7003933  58.1622192
  49.6684119   9.1566065  59.1535829  49.5922017   9.5019846  58.4535472
  47.5316385   3.0239008  64.0043355  48.1569089   2.4801140  64.2772787
  47.0766865   2.5433925  63.4351145  47.5564646   2.8728489  63.9604948
  48.0968646   7.8085706  48.8977062  48.2371607   8.3058170  49.6005703
  48.5951179   7.1072001  49.0391275  48.1909727   7.7787685  49.0228641
  48.1268868   8.6752817  46.2269638  48.7613948   9.2713242  46.1619100
  48.2094479   8.3756275  47.0415509  48.2325419   8.7193725  46.3372725
  61.1051434  11.2068295  59.0956003  61.6969274  11.8465545  59.1274201
  61.5410428  10.5091331  59.3848069  61.2569865  11.1986645  59.1436835
  49.7047851   4.6066793  46.2015080  50.0263692   4.1269875  45.5474343
  49.9674795   5.4166439  46.0105892  49.7913876   4.6556690  46.0770573
  52.9344824  15.6285667  59.7213897  52.4269915  16.1821514  60.1654527
  52.6371470  15.6893957  58.9032671  52.8149709  15.7191978  59.6662353
  55.1007006   3.9938987  58.5638560  55.5262077   3.5411513  57.9522086
  54.4863999   3.4399057  58.8403347  55.0735651   3.8452963  58.5143585
  44.6321856  10.8720658  49.4959185  45.1414085  11.4685165  49.8770490
  45.1056128  10.6046632  48.8135604  44.7765232  10.9206473  49.4513707
  55.5452604  19.5448925  47.6517840  54.8281914  19.3709787  47.1865077
  56.1959342  19.3101497  47.1193326  55.5354455  19.4844717  47.5047058
  58.1300575   8.4213513  51.3959145  57.4591765   8.9643215  51.2672211
  58.8240325   8.8908368  51.1540840  58.1329443   8.5711784  51.3414673
  52.1787309  20.5610225  56.6270903  51.9552963  19.8029054  56.9954930
  51.6897152  20.5908246  55.9051343  52.0730758  20.4532450  56.5747644
  58.2928703   4.8769397  54.3049518  58.6456313   4.4499120  54.9795317
  57.4343504   4.7920240  54.4350595  58.2178147   4.8014137  54.4244529
  46.9912388   7.5076916  52.3632365  46.2724377   7.9241049  52.6305228
  47.3624750   8.0731155  51.8124003  46.9404319   7.6526198  52.3215172
  56.2911969   8.1404765  58.2534361  56.2709896   7.9588061  59.1069139
  56.3391169   9.0116784  58.2293944  56.2946610   8.2421304  58.3757655
  54.2358298  14.7291957  64.1782837  54.1954153  14.0841634  63.5927993
  55.0481617  14.6728575  64.4908249  54.3501452  14.6250924  64.1379786
  50.8265766  20.7810683  54.0807988  50.4126165  20.1184814  53.6911830
  51.5113140  20.9288542  53.5603682  50.8664138  20.7051341  53.9464485
  54.1931060  19.9400769  54.8331605  53.7947343  20.0503039  54.0652425
  53.5782280  20.1482835  55.4158164  54.0429949  19.9874337  54.8062904
  52.7658962   6.5474916  47.7005744  52.1723801   6.8691913  47.1490311
  52.8034240   5.7016012  47.4926851  52.6833351   6.4699245  47.5888516
  55.6416779   6.5054421  51.1307495  55.4130472   6.5287122  50.2885853
  55.9014855   5.6811888  51.2502505  55.6462967   6.3870501  51.0232692
  49.9236007   8.3588894  60.7332595  49.4114910   7.7510077  61.0917626
  49.7515503   9.0745486  61.2006571  49.8225644   8.3752193  60.8548818
  44.7701722   6.8026469  63.3834957  44.6004312   7.4627844  62.8383163
  44.3267672   7.0133030  64.1047446  44.6801055   6.9312451  63.4096586
  48.6961541   5.0430967  52.4261690  49.1718907   5.4048047  51.7911871
  48.1950141   5.6987435  52.7061833  48.6926900   5.1925156  52.3738431
  61.9272903  14.5152735  48.2174695  62.3106509  15.2644091  48.4472792
  61.1317016  14.7618555  47.9586684  61.8666685  14.6622429  48.2132269
  53.8005077   6.2813139  63.1734850  54.3576508   6.0526948  62.5413316
  53.4766142   7.0418804  62.8970063  53.8351488   6.3596975  63.0391347
  41.6703786   9.7073335  58.6423446  41.1230506   9.0373980  58.7604315
  42.4596164   9.3403183  58.7066914  41.7055970   9.5538321  58.6692147
  51.5188195   9.3680792  64.1386858  52.2699522   9.6832469  64.4526412
  51.7110771   9.1659963  63.3120779  51.6579609   9.3848174  64.0630253
  50.7388194   7.1872167  45.7935074  51.1187159   7.2051796  45.0086189
  49.9980790   7.6326156  45.6725922  50.6857032   7.2553942  45.6598642
  58.3673485   5.4954358  51.3810653  58.3667711   5.3403015  52.2394929
  58.1629665   6.3417345  51.3252039  58.3373263   5.5974979  51.4998592
  40.4290756   8.9194143  55.7969470  40.2512517   8.4670752  56.5224385
  40.1409778   9.7220304  55.9807947  40.3603709   8.9716700  55.9312972
  56.0914337  10.1751860  55.0346860  56.5868002   9.4574855  54.9950880
  55.2814113   9.8722658  54.9201347  56.0458230  10.0249506  55.0120586
  51.5372948  14.0249673  47.1843864  50.7284271  13.7016347  47.1377174
  52.0447857  13.3182895  47.1172113  51.4922615  13.8730990  47.1674159
  42.1663226  11.4521866  52.9091229  41.3008745  11.4407557  52.7974000
  42.2662042  11.2652089  53.7562368  42.0537393  11.4227928  53.0180173
  58.1566156  12.9255547  57.7223989  58.5821227  12.4029969  57.1694414
  57.7923076  13.5236385  57.2012612  58.1652758  12.9365775  57.5632998
  47.7920236  21.2219765  56.4821334  48.1066795  22.0356153  56.4899116
  48.2013649  20.8369984  57.1503493  47.8988334  21.2848467  56.5825426
  54.7444755  16.6389812  54.0525146  55.2155933  17.3530074  54.2215131
  55.0804934  16.0388562  54.5885016  54.8639870  16.6561276  54.1557522
  56.8321740  18.2491125  66.2317218  56.9418705  17.4599686  66.5873965
  57.1612636  18.1597061  65.4291556  56.8974146  18.1196978  66.1659609
  50.7307365   3.4133695  48.4762706  51.5523059   3.5832008  48.2344401
  50.2677016   3.5680956  47.7529003  50.7838527   3.4615428  48.3334350
  49.3202697   1.4076457  59.2561135  49.8647110   1.0667584  59.8465476
  49.3739633   2.2661919  59.3982419  49.4091816   1.4831717  59.3643008
  45.1333256  15.1692873  56.1299942  45.7378113  15.1288708  55.5013763
  44.9260568  16.0164025  56.1603998  45.1922153  15.2880876  56.0416059
  54.9477028  17.4358819  57.3462180  55.7675402  17.2921785  57.6078475
  54.6671105  18.0605017  57.8878618  55.0273771  17.5069171  57.4650119
  40.3684538  14.1527491  55.9998866  40.2708816  13.3423762  56.3088922
  41.1513408  14.1319284  55.6145134  40.4700674  14.0294581  55.9885729
  71.4190678  25.0923670  50.3105056  71.3884683  25.9468307  50.4823326
  72.0172027  24.7918963  50.8691200  71.5027836  25.1740167  50.4179859
  64.6190363  24.1799321  55.0657987  63.7628259  24.3407820  55.1167103
  64.6658017  23.3091385  55.0863048  64.4989474  24.0750123  55.0764053
  59.0031503  33.7162039  50.8295218  58.2514402  33.3377578  50.6011263
  59.4517514  33.7480473  50.0814029  58.9581170  33.6647646  50.6852720
  67.9284080  30.4485847  64.6718443  68.6350847  29.9537878  64.8005377
  68.1172015  30.8894928  63.9421101  68.0611985  30.4404197  64.5827488
  64.4556463  34.1387409  46.2580765  64.1207831  34.8164330  45.8224987
  64.9683333  33.7492720  45.6697637  64.4822044  34.1811987  46.1067557
  63.9960754  36.0901677  52.1991877  64.3800133  36.6588576  51.6596652
  63.9319895  35.3651188  51.7197693  64.0434181  36.0677141  52.0485739
  67.4642184  26.2391365  57.7089638  68.0098144  26.9176452  57.7683608
  67.4059060  26.0978826  56.8491220  67.5358098  26.3183367  57.5901699
  60.5816259  33.7280431  53.0957991  60.6826622  32.9180785  53.4055118
  59.9858004  33.6337378  52.4657669  60.5088798  33.5945459  53.0484229
  69.2407253  27.6675972  48.5823366  69.1246779  28.4183658  49.0115504
  70.0363139  27.4099926  48.8319453  69.3411842  27.7410819  48.6827458
  60.4216999  38.6458020  54.4972847  61.0654454  39.0871185  54.8869005
  60.7473254  37.8411447  54.4103106  60.5648827  38.5923215  54.5418324
  53.7781303  29.7500718  52.7210324  53.5431488  28.9168370  52.6142593
  53.9166944  30.0305384  51.9071525  53.7636966  29.6684221  52.5852679
  56.0771391  21.9186449  55.6194632  55.4576422  21.3279096  55.4504647
  55.9755254  22.5097884  54.9858955  55.9709066  21.9190531  55.4999622
  61.1237578  31.6569995  49.8692708  61.4453419  32.1975203  49.2654017
  61.7709675  31.0866767  50.0014998  61.2663633  31.6529171  49.7999744
  63.1739286  23.6585990  49.9527095  63.8719451  23.8374118  50.4448558
  63.4891619  23.1356330  49.3297485  63.3234624  23.6079762  49.9329105
  55.8040524  25.4638730  57.8638201  55.6799221  26.0501176  58.4988020
  56.4558808  24.9698926  58.1650476  55.8814173  25.4777535  58.0024130
  63.3627222  30.0456435  49.9406887  63.8020857  29.4373536  50.3861659
  63.2131885  29.6663809  49.1692352  63.4048687  29.8994906  49.8926054
  60.8298865  28.6400447  57.1425712  61.4747867  28.1472890  56.8236661
  61.0700642  28.7825234  57.9691790  60.9609450  28.5877889  57.2175245
  63.3684956  31.4855353  56.7932605  63.6508199  30.6906759  56.5719361
  64.0971116  31.9635940  56.8137666  63.5174520  31.4389950  56.7635620
  61.3466150  19.0278387  54.0348370  61.0169480  19.4789531  53.3652069
  60.6711152  18.9494550  54.5821376  61.1976586  19.0829522  54.0171593
  66.9636558  28.3983617  46.8937656  66.8787853  29.2544583  47.0387225
  67.4520941  28.1227941  47.5619815  67.0225456  28.4840938  47.0139737
  68.5542558  15.0163910  52.2797980  68.2395999  15.7067388  52.7118403
  68.0369499  14.9608692  51.5783481  68.4307028  15.1098798  52.2394930
  67.8954991  25.0168411  48.3935391  67.3666463  25.2328044  49.0532697
  68.4180011  25.7104549  48.3136360  67.8943444  25.1511548  48.4790990
  73.3503044  30.5914715  53.7668435  72.5200748  30.8025359  53.9301852
  73.3012297  29.7651770  53.4910719  73.2209780  30.5004322  53.7505801
  55.3398628  34.6286389  53.9966531  54.8566206  35.3536878  53.9726114
  56.1521946  34.9262519  54.1076688  55.3889376  34.7788742  54.0093810
  61.4112782  33.4218569  56.6016345  60.8939724  33.0625984  55.9977653
  62.1087173  32.8980744  56.6122411  61.4378363  33.2916257  56.5146604
  65.0676374  33.8713383  62.5632518  65.1559720  33.6839524  63.4110728
  65.4966086  33.2250813  62.1637365  65.1438476  33.7476391  62.6304270
  62.6346834  33.1544543  61.5450180  62.0717669  32.7417153  62.0689841
  63.3967857  33.0797449  61.9643324  62.6641282  33.0821944  61.6843181
  64.2431814  25.1597280  45.6711780  64.4827817  25.3675263  44.8587123
  64.5647655  24.3554788  45.7800724  64.3268972  25.0711381  45.5672333
  59.5522104  17.0890675  49.5171318  60.3068072  17.4568992  49.2788368
  59.3749639  17.4630230  50.2850497  59.6376582  17.1988863  49.5956206
  58.1942825  35.1442565  54.1486810  58.8963404  34.6294554  54.2059567
  58.1140308  35.4716716  54.9533686  58.2866586  35.1156791  54.2759603
  72.8457003  23.2385116  57.5618857  72.0085424  23.3087303  57.7966451
  72.8145234  23.2409611  56.6893159  72.7175285  23.2495343  57.4678405
  59.2421732  25.3818152  63.2767225  59.4142235  25.2724046  64.1252507
  59.7791089  26.0272557  63.0398418  59.3466736  25.4610153  63.3672322
  57.9079169  19.4960994  46.2149431  57.7254742  19.7132875  45.3890423
  58.7704782  19.6100007  46.2708045  58.0083758  19.5450892  46.1003918
  57.5193601  31.3348917  53.6572418  58.3582500  31.5671849  53.7046180
  57.5505370  30.4653228  53.5879454  57.6475318  31.2405863  53.6537063
  58.1446304  31.7549792  57.9585724  58.6844529  31.6120923  58.6289096
  57.4616250  32.1546543  58.3269750  58.1238457  31.7929463  58.1120146
  63.5878888  16.4987405  49.2498454  64.3165048  16.3203360  48.8036611
  63.6773781  17.3405485  49.4605632  63.7085550  16.5971283  49.2151972
  67.5687188  27.4340792  53.1530748  68.3244704  27.8672307  53.1919657
  67.6749513  26.7845562  53.7265384  67.6957359  27.4018276  53.2428774
  70.6067360  31.2614070  53.9033151  70.1702591  31.2650812  54.6592123
  70.2730275  31.9419569  53.4712729  70.4929980  31.3626525  53.9513984
  65.1796433  33.3022402  65.2276302  65.9636850  33.4153250  65.5932044
  64.9793028  32.4763540  65.4234987  65.2662459  33.1969122  65.3110688
  53.5483449  27.9750083  58.1120145  53.2821864  27.1589199  58.2711136
  53.5622013  28.0203238  57.2415661  53.5108171  27.8606987  58.0073627
  70.5264843  18.3027897  56.1462579  71.1690751  18.3726002  56.7324494
  70.7787863  17.6357120  55.6442121  70.6586975  18.2154246  56.1589858
  57.4541196  22.7735167  44.7271904  56.7399373  22.4873347  45.1394336
  57.9385164  23.1131793  45.3678291  57.4200559  22.7816817  44.8827539
  58.2982055  21.5128461  60.7587153  57.6053852  21.0425441  61.0047885
  58.9142382  21.2866765  61.3328860  58.2866585  21.4095593  60.8796306
  65.3366827  35.2132505  58.8742757  64.5382072  34.9732005  59.1316626
  65.7852838  35.2646897  59.6209805  65.2841438  35.1854896  59.0227681
  73.7411706  27.9794990  52.7952789  74.4028140  27.4185658  52.6948697
  73.1003118  27.4847020  53.1205480  73.7440573  27.8231399  52.8285129
  64.6288514  31.2765121  45.1033712  65.0439662  30.9450145  44.4118208
  63.7980443  31.0434023  44.9753848  64.5676522  31.1936377  44.9824559
  53.9576862  28.7608862  55.3931890  53.7752436  28.7355748  54.5404182
  54.6926531  29.2307800  55.4320799  54.0390926  28.8270224  55.2729808
  70.0276537  28.9960372  52.5364777  70.2632126  29.1405571  51.7091628
  70.1766100  29.7602780  52.9296291  70.0842340  29.1299426  52.4728381
  57.0222614  25.4793865  61.9013998  57.7462586  25.4646895  62.3878893
  57.1238751  26.1889220  61.4035967  57.1440823  25.5818568  61.8992785
  71.8566993  27.8362038  50.3734381  72.1875210  28.3689678  49.7674476
  72.4300081  27.8900926  51.0296332  71.9900672  27.9231607  50.3812163
  64.3967563  28.9592949  66.7662945  63.6040544  29.2736461  66.9515565
  64.5116491  29.1744418  65.9283730  64.2962974  29.0376786  66.6701280
  67.0698882  25.6826941  51.0557961  67.1645737  26.4216235  51.5097587
  66.4457726  25.2544416  51.4892526  66.9907912  25.7288261  51.1866109
  65.3251356  28.8613153  61.7048242  65.8990218  28.2240397  61.8596806
  65.2466160  28.8617236  60.8357900  65.3984591  28.7678265  61.5994653
  53.9247773  25.6402363  55.5430956  54.5021275  25.5038813  56.1823202
  53.2261834  25.1838147  55.7976541  53.9068794  25.5524629  55.6753246
  67.3221904  27.5275680  44.2894913  67.2402066  27.5977868  45.1549900
  67.9601624  28.0905424  44.0978654  67.4041741  27.6214651  44.3884863
  60.6815075  27.2936418  53.7569440  60.4234319  26.4608153  53.7300739
  60.7363558  27.5194031  52.9161940  60.6514853  27.2034190  53.6289576
  65.7616125  19.3964869  53.8573532  65.0572452  18.9074055  54.0157451
  65.8101099  19.4087343  52.9861977  65.6646177  19.3254517  53.7512872
  59.6549787  24.8474181  54.2434334  59.0799378  25.0066349  54.8798295
  59.2785463  24.2109590  53.7802785  59.5152599  24.7771994  54.2688893
  63.3223076  23.3197530  59.1026713  62.9337508  22.8951748  58.4478904
  62.6577774  23.5679680  59.6103739  63.1670003  23.2936251  59.0814581
  72.9646345  23.0772535  51.8774543  72.7082910  22.2652476  51.6872426
  73.8075659  23.0850102  51.6504730  73.0512370  22.9584532  51.8159360
  49.4006606  24.4914256  52.2578775  49.4866858  24.1146124  53.0392305
  50.0282403  24.1174701  51.7798733  49.5063157  24.3799738  52.3024252
  67.1449437  17.0172159  56.6150697  67.5259949  16.3350330  57.0018571
  66.3412721  16.7281761  56.4326361  67.0825899  16.8739207  56.6454753
  64.4262014  27.5496135  47.3003520  65.2402653  27.8411027  47.1886291
  64.3621155  26.8955997  46.7261813  64.5364753  27.4961329  47.1992357
  70.6471504  30.2322131  61.7133095  70.4110141  29.4010196  61.5945156
  71.2914733  30.1807738  62.2987940  70.7066175  30.1019819  61.7818989
  60.2969922  31.0217652  52.4275832  60.9343869  30.7829400  52.9727625
  60.7224994  31.2254811  51.6928992  60.4546088  31.0168662  52.3992989
  54.9882565  33.2605989  56.3110136  55.0286710  33.5320840  55.4829915
  55.5477089  33.7847897  56.7267923  55.0765910  33.3781744  56.2502024
  60.9372737  26.2419942  46.7650721  61.3217890  26.0227649  47.5167266
  60.6884358  27.0682887  46.8951798  60.9574810  26.3318088  46.8951798
  61.1041278  19.5226357  66.4813305  60.7894719  20.2925920  66.2182868
  60.7831210  18.9596613  65.8965532  61.0100197  19.5536626  66.3554655
  71.6707925  30.0166580  57.7761390  71.3653742  30.7494636  58.1374705
  70.9514140  29.6104509  57.4954176  71.5195267  30.0648313  57.7874527
  62.6791394  31.4990075  54.1069618  62.7530402  31.3365247  54.9611468
  63.4960900  31.6880264  53.8630100  62.8107753  31.5026817  54.1967644
  77.3709717  26.6559580  57.1029734  77.3034217  26.6755539  56.2332321
  77.3565379  27.4989907  57.3285405  77.3588473  26.7833315  57.0082211
  56.4397151  31.8447938  51.1364062  55.6135268  32.0909675  51.0098340
  56.5009142  31.7660018  52.0026120  56.3271318  31.8692887  51.2453006
  58.6573175  17.9116879  52.0959502  57.7895600  17.9839478  52.1617111
  58.9448379  18.7138957  52.2847477  58.5712923  18.0411026  52.1334268
  67.7806063  18.0594738  60.4270824  68.5259655  17.8704548  60.0134249
  67.3643368  18.5852976  59.8684680  67.8291038  18.1096883  60.2835397
  61.2195980  34.4624818  48.8383091  61.5094278  34.0713799  48.1142318
  61.9499461  34.6441523  49.2788367  61.3702864  34.4318632  48.7965898
  75.1568334  25.4303966  55.3776328  75.7076256  24.7972035  55.6173421
  75.1412450  25.9619359  56.0691833  75.2353531  25.4152915  55.5155187
  61.8090725  29.2642564  59.9236222  61.3102419  29.9758331  60.0021110
  62.6190949  29.5843230  59.8854384  61.8546832  29.4169412  59.9292790
  59.1601895  36.4392200  51.9043241  58.9402191  36.1489555  52.6969908
  58.9396417  35.7807155  51.3761154  59.0949490  36.2991909  51.9432150
  58.0718843  28.5265517  54.1698943  57.7832091  27.9002988  54.7044670
  58.9402191  28.4685804  54.2363623  58.1579095  28.4253061  54.2589897
  68.8596740  23.6700300  54.4880925  68.5161506  22.9490635  54.8388174
  68.9589783  23.4614151  53.6459283  68.8238783  23.5324503  54.4152605
  61.3269851  37.8121590  50.6873934  61.9793909  37.2798032  50.9164960
  60.6295460  37.4590242  51.0741808  61.3200569  37.6811113  50.7786101
  58.2751116  30.1660768  50.0941308  59.0297084  30.5473807  50.3076770
  57.6821729  30.6171911  50.5488004  58.2987830  30.2889595  50.1924186
  69.3209769  30.1326004  50.0304913  69.8867802  30.7919214  49.9463456
  68.6737673  30.4775702  50.5021315  69.3088526  30.2807945  50.0877669
  60.7357783  22.1223608  65.2198520  59.9257559  22.4281388  65.1088362
  61.2132470  22.8429190  65.3351104  60.6861262  22.2738209  65.2205591
  59.5949343  31.3369329  55.4681423  59.0730096  31.4769621  56.1533288
  59.9823363  30.5779993  55.6583541  59.5753043  31.2454853  55.5982500
  56.5840527  21.3875138  49.5376378  56.2965322  21.0176408  48.8008325
  57.2710995  21.8569993  49.2760083  56.6429424  21.4022107  49.3891454
  65.7916348  33.0764788  49.4541992  65.5503023  32.3432649  49.0469057
  65.9717680  33.6251645  48.8008325  65.7823972  33.0487180  49.2972215
  61.0215668  28.3673348  50.8662914  60.8258451  28.9748083  50.2723217
  61.2450014  27.6741292  50.3854588  61.0250309  28.3550874  50.7078995
  59.4194198  25.2528086  50.9843783  60.1416850  25.4169244  50.5247589
  58.9402191  25.9737751  50.8783122  59.4557929  25.3826316  50.9009397
  67.3787706  21.5891885  56.3640468  66.5398806  21.6153164  56.1278731
  67.4492073  22.2362620  56.9445814  67.2656099  21.6888011  56.4149584
  57.0701815  27.6586158  60.0897923  57.5822912  27.9370412  59.4406682
  56.7838158  28.3975453  60.4560736  57.1036678  27.8088512  60.0487801
  65.8256984  18.4877262  51.0968084  66.5283337  18.2885010  50.6188042
  65.5601173  17.7153204  51.4036927  65.8903616  18.3440228  51.0713525
  71.2545230  26.7959872  53.6501709  71.1679204  26.9515298  54.5036488
  70.7995710  27.4397947  53.2761114  71.1748486  26.9135627  53.7208816
  54.1568721  22.1656350  50.3861659  54.2584858  22.9682512  50.7142634
  54.9524608  21.9643686  50.0884740  54.2896627  22.2542249  50.3897014
  60.5885540  19.7512547  60.1498964  60.3968737  19.7667681  60.9998388
  61.4384136  19.9476221  60.1265619  60.6861262  19.7826898  60.2722259
  54.9732453  22.2803529  58.1282781  54.8317945  21.4287469  58.2527289
  55.2573017  22.3232189  57.3044987  54.9940299  22.1603279  58.0250405
  65.1271046  24.1170619  52.2727269  64.8805760  24.0366370  53.1064058
  65.4556169  23.3324087  52.0789796  65.1392289  23.9896884  52.3674792
  69.0219094  30.8253978  56.0614050  68.8833454  31.5235024  56.5662792
  68.2419092  30.6702635  55.7050232  68.8862321  30.9054145  56.0840324
  67.3597180  27.1250353  62.3136432  67.3545218  26.2530170  62.3178858
  68.0658173  27.3238523  61.8405887  67.4642184  27.0254228  62.2443467
  61.0868073  26.8527337  61.6850252  61.2311449  27.4328545  61.0493362
  61.4343722  27.2303634  62.3900107  61.1595534  26.9948041  61.6949247
  63.2587990  26.0517506  59.4675384  62.5111304  26.2448520  59.0623662
  63.4129516  25.2262725  59.2299505  63.1710418  25.9582617  59.3720789
  60.1595828  35.0430109  58.5511279  60.3085392  34.4833025  57.8984683
  60.9395830  35.1222111  58.9343798  60.2969922  34.9715675  58.5108228
  70.5172467  30.1832232  46.8230549  70.1379276  29.3969370  46.8159839
  69.8538713  30.7319089  46.6802194  70.3630942  30.1477056  46.8011346
  62.6849129  35.2144752  59.8295770  62.6092800  34.5453563  60.3846558
  62.6138988  35.9162540  60.3436436  62.6629735  35.2189659  59.9872618
  55.7422759  20.1933876  61.4460231  55.2064948  19.5814234  61.7620998
  55.8040523  20.7682012  62.0993898  55.6718391  20.1880804  61.5895658
  67.9717093  13.1257932  54.2264630  68.0900661  13.5834395  53.4931933
  67.7979269  12.3203193  53.9400848  67.9636264  13.0751704  54.0765564
  63.3419376  33.7345751  50.6619376  64.1069267  33.4655395  50.3402040
  63.2397465  33.2495761  51.3789438  63.4400871  33.6235316  50.7199203
  61.3772145  21.9370160  57.2012611  60.5868220  21.7561620  57.5229947
  61.7732768  21.1597113  57.1842906  61.3189021  21.7957621  57.2465160
  65.8638036  30.7657935  42.6419325  66.6311021  30.8258060  42.2325177
  65.4169345  30.1938376  42.1575643  65.9111463  30.6894510  42.5097035
  66.7615832  29.5712591  54.9272057  66.0860833  29.3397823  55.4285444
  66.7708208  28.9633773  54.3014162  66.6634336  29.4471516  54.9088209
  63.8909976  24.4130419  61.6836110  63.8269117  25.2740376  61.5556247
  64.0307163  24.0962413  60.8831661  63.9025446  24.4930586  61.5464323
  68.7632566  32.4277723  47.1582235  68.8452404  33.2344709  46.8343686
  69.2482308  32.4473682  47.8823009  68.8469724  32.5498385  47.2169134
  62.5729069  27.1062559  55.8252313  62.1491319  27.3067058  55.0891331
  62.3973925  26.2591407  55.9376613  62.4839950  27.0111340  55.7326003
  62.0740763  38.6213072  58.2873770  62.5636693  37.9223861  58.1049435
  61.5024995  38.3236942  58.8749828  62.0625293  38.4739295  58.3474811
  57.8611514  27.6014610  51.2580286  58.0176134  27.5361413  52.1136278
  58.2012108  28.3763163  51.0458965  57.9344749  27.7063808  51.3534880
  64.3990659  26.9772494  50.1273649  64.9406204  26.4742875  50.5912269
  64.7137218  26.9237689  49.3163134  64.5255056  26.8951915  50.0757461
  68.2707766  31.1875141  67.2400561  69.0842632  30.9160290  67.4005694
  68.1102733  30.8882681  66.4360757  68.3677715  31.1030067  67.1445967
  62.5677109  32.3689845  47.4113677  62.6369929  31.5104384  47.5506677
  63.3465564  32.5861726  47.0832701  62.6929959  32.2742709  47.3830834
  65.5479928  21.8708798  60.1795949  65.7621898  21.2319713  59.6259303
  64.9313828  22.3154622  59.7503811  65.4885258  21.8418942  60.0346380
  66.9584596  34.7927547  51.6250170  66.5664388  34.4894262  50.9073036
  67.1137669  35.6296637  51.4355124  66.9238186  34.8711383  51.4906667
  54.4345776  24.7849561  51.5741053  54.8144741  25.2034106  50.9101320
  53.8601141  25.3663016  51.8809896  54.4057101  24.9327420  51.5217794
  67.7119016  23.4797864  61.1179256  66.8995698  23.1723754  61.1992429
  68.1708951  22.9996864  61.6821969  67.6599401  23.3634356  61.2133851
  67.1224271  31.3577535  51.5656201  66.7638926  31.5292178  52.3420233
  66.6362982  31.8190741  51.0084199  66.9982968  31.4516507  51.5981470
  64.9394657  14.9808734  55.1683292  64.0688215  14.9547455  55.1216602
  65.1934998  14.8085926  54.3509138  64.8488217  14.9518878  55.0403429
  61.9112636  27.0376701  44.1056435  62.2005161  27.8141583  44.3800009
  61.9984435  26.5265432  44.8070934  61.9666893  27.0768619  44.2498933
  64.8072524  24.8857935  65.9007959  65.2772155  25.5100051  66.2875833
  64.8534404  24.2174910  66.4601173  64.8840400  24.8792615  66.0408030
  61.9643798  16.9914962  56.6256762  61.4482286  16.2995154  56.7508341
  61.4037726  17.6585739  56.5719361  61.8050311  16.9878220  56.6362828
  64.0336031  17.5307922  58.4549615  63.6467784  17.5556954  59.2363145
  63.5468968  16.9649601  58.0024132  63.9048540  17.4503673  58.5037519
  68.2829010  32.2481431  62.5123402  68.9208731  31.7541627  62.1785858
  67.6403102  32.1758832  61.9275628  68.2823237  32.1640440  62.3765757
  70.0086010  24.0970577  57.0789317  69.5813619  24.0096926  56.3237417
  69.3712063  24.2048353  57.6644161  69.8515618  24.1003237  57.0534759
  63.6993173  14.4174908  60.7459875  64.3286291  14.9535208  60.4680945
  63.8679035  14.3252267  61.5973441  63.8170967  14.4836270  60.8308403
  63.5007088  19.2046103  63.0186287  64.3280517  18.9331252  63.0744901
  63.5214934  20.0006944  63.3750105  63.6259938  19.2825857  63.0801469
  68.3383267  32.9401240  59.1528758  69.1275645  32.5890304  59.2730840
  68.5126865  33.7537628  58.8905392  68.4803549  33.0087097  59.1316626
  58.0776577  26.3509965  56.2056547  57.2364584  26.2513840  56.4135441
  58.2866585  27.1205446  56.5570868  57.9841270  26.4502009  56.2883862
  55.5552144  23.9729502  54.0341298  55.1608842  24.0472514  53.2591408
  54.9992261  24.3587449  54.5849660  55.4154957  24.0411277  54.0008958
  67.1917091  16.9510796  53.7145177  67.3966685  16.8833104  54.5602174
  66.8643515  17.7569618  53.6466354  67.1732339  17.0596737  53.8304832
  61.8893242  24.2791365  55.4554145  61.5856380  23.7247353  56.0564552
  61.1872663  24.4583575  54.9682179  61.7409452  24.2236147  55.4723850
  60.9459339  21.5891884  50.0198847  61.2219074  20.8710797  49.6076414
  61.5458009  22.1876804  49.8119953  61.0752604  21.5712255  49.9279608
  59.9511593  31.4941085  60.1626243  59.8431948  31.5043147  61.0288301
  60.1607375  32.3195866  59.9731196  59.9661704  31.6182160  60.2630334
  70.4450779  17.5042561  53.1947942  69.8325093  17.9912963  53.5801674
  70.5414954  16.8286052  53.7385593  70.3688677  17.4760869  53.3326800
  64.4469860  19.2605402  48.2945442  64.9013606  19.4315962  49.0193286
  64.9209906  18.6473512  47.8943217  64.5838180  19.1956287  48.3419203
  57.9685385  28.7453728  57.6248180  57.3773319  29.3863226  57.5951195
  58.7306409  29.1691345  57.5979480  57.9933646  28.9029566  57.6163327
  58.3646008  19.9055725  58.2916198  58.8247490  19.9794655  59.0291321
  58.4102115  20.7036980  57.9416019  58.4396563  20.0349873  58.3488954
  60.0129358  20.5722420  62.8588225  59.6214923  19.9255767  63.2944003
  60.1815221  21.1633856  63.4782480  59.9800268  20.5636688  63.0150931
  74.0875807  28.5759497  58.6225458  74.1458931  29.0246146  59.3685435
  73.4542274  28.9858310  58.1855538  74.0027102  28.7033232  58.6678007
  67.7274902  34.1963039  55.0580205  67.5294590  34.6853854  54.3636416
  67.1062613  34.4004281  55.6364338  67.6062466  34.2979578  55.0403428
  61.7882880  25.9647936  49.3990449  62.5324925  26.3522212  49.6373399
  61.9343576  25.1205362  49.5630937  61.9193465  25.8978409  49.4584419
  63.7062455  17.7598195  54.4322310  62.8598500  17.9321003  54.3063660
  63.7033588  16.9547539  54.7688139  63.5809605  17.6659224  54.4633437
  64.7760756  21.5373409  55.2984368  64.3020710  21.0115172  55.8089679
  65.1478892  20.9902882  54.7299230  64.7610645  21.3789406  55.2899515
  55.1533786  23.5344916  60.6667914  56.0159399  23.4340625  60.5805244
  54.8225569  22.9539625  60.1053486  55.2318982  23.4336543  60.5713320
  71.0397486  26.5975785  56.7091149  70.7995709  25.7582200  56.7133575
  71.5189494  26.6775952  57.4331922  71.0749670  26.4857185  56.8165951
  66.7044255  22.4309964  48.3610122  66.1767274  22.5138708  47.6715831
  67.1639964  23.1727836  48.3574767  66.6946106  22.5530626  48.2584817
  73.0402673  23.3777242  54.6620408  72.8012443  23.3373076  53.8241192
  73.2036575  24.2248394  54.7886129  73.0292977  23.4969327  54.5573890
  69.6448703  27.7627192  60.5925453  70.3682902  27.3099718  60.4136473
  69.3798666  28.0431857  59.8097781  69.7129977  27.7378160  60.4504168
  58.5135572  22.3587365  57.3278332  57.8888642  22.3705757  56.7204285
  58.1781167  22.8347540  57.9769572  58.3721064  22.4305882  57.3334901
  58.6977321  20.7012484  43.3851017  58.3490125  21.3532209  43.8482566
  58.2173766  20.6869597  42.6574888  58.5747564  20.7955537  43.3462108
  55.2261247  30.4187825  58.7682096  54.6961172  29.7280264  58.8177071
  55.4986341  30.4098011  57.9394805  55.1885970  30.3154957  58.6529512
  66.2581338  31.0013528  47.4919779  66.9815537  31.4671641  47.3484352
  65.8181929  31.0687137  46.7417376  66.2997030  31.0797364  47.3604560
  65.4267493  27.8611070  58.7420468  64.8124486  27.3169120  59.0369103
  65.9434778  27.3475306  58.2626284  65.4123155  27.7047479  58.7144696
  64.6663790  28.9315340  56.4764767  64.2391398  28.3065059  56.0430202
  64.6588735  28.6490262  57.3023774  64.6022931  28.7968121  56.5344594
  57.7826317  23.9680513  59.5453201  57.9419804  23.2123837  59.9504923
  57.6019211  24.5171453  60.1993938  57.7791676  23.9374327  59.7015907
  65.7246620  16.1341749  60.1003990  65.2287181  16.3305423  59.4095557
  66.4815682  16.5334417  59.9292792  65.7633445  16.2219482  59.9724127
  62.9949500  19.8084094  56.6907301  63.0191987  19.2744207  56.0020081
  63.2460973  19.3001403  57.3532891  63.0359419  19.6544998  56.6871945
  50.5057090  27.0915589  56.1250445  50.4000539  27.0462434  55.2602529
  49.7557310  27.4369370  56.4064730  50.3792693  27.1356498  56.0387774
  59.2750822  18.5354913  56.0713045  59.3149194  19.0364119  56.7847752
  58.4500487  18.6265306  55.8018968  59.1590348  18.6236729  56.1363583
  61.4580435  28.1015653  64.1733340  60.6076065  28.2387367  64.3090984
  61.6208563  27.3679431  64.6181041  61.3564298  28.0129754  64.2588939
  60.6965185  25.0515423  58.3686944  59.8657115  25.2189240  58.1622192
  60.6416703  24.6751373  59.1535829  60.5654600  25.0205154  58.4535472
  58.5048969  18.5424315  64.0043355  59.1301672  17.9986448  64.2772787
  58.0499449  18.0619233  63.4351145  58.5297229  18.3913797  63.9604948
  59.0701229  23.3271014  48.8977062  59.2104190  23.8243478  49.6005703
  59.5683762  22.6257308  49.0391275  59.1642310  23.2972993  49.0228641
  59.1001452  24.1938125  46.2269638  59.7346531  24.7898550  46.1619100
  59.1827062  23.8941583  47.0415509  59.2058003  24.2379033  46.3372725
  72.0784017  26.7253602  59.0956003  72.6701858  27.3650853  59.1274201
  72.5143012  26.0276639  59.3848069  72.2302449  26.7171953  59.1436835
  60.6780435  20.1252100  46.2015080  60.9996276  19.6455183  45.5474343
  60.9407378  20.9351747  46.0105892  60.7646460  20.1741998  46.0770573
  63.9077407  31.1470975  59.7213897  63.4002498  31.7006822  60.1654527
  63.6104053  31.2079265  58.9032671  63.7882292  31.2377286  59.6662353
  66.0739590  19.5124294  58.5638560  66.4994661  19.0596821  57.9522086
  65.4596583  18.9584365  58.8403347  66.0468235  19.3638271  58.5143585
  55.6054440  26.3905966  49.4959185  56.1146669  26.9870473  49.8770490
  56.0788712  26.1231939  48.8135604  55.7497815  26.4391781  49.4513707
  66.5185188  35.0634233  47.6517840  65.8014497  34.8895095  47.1865077
  67.1691925  34.8286805  47.1193326  66.5087038  35.0030025  47.5047058
  64.5133812  15.9839394  51.9729137  63.8702130  15.8337041  52.5414275
  64.1733219  15.7381740  51.2078241  64.3678890  15.9251517  51.9432152
  69.1033159  23.9398821  51.3959145  68.4324349  24.4828523  51.2672211
  69.7972909  24.4093676  51.1540840  69.1062026  24.0897092  51.3414673
  63.1519893  36.0795533  56.6270903  62.9285547  35.3214362  56.9954930
  62.6629736  36.1093554  55.9051343  63.0463342  35.9717758  56.5747644
  69.2661286  20.3954705  54.3049518  69.6188896  19.9684428  54.9795317
  68.4076088  20.3105548  54.4350595  69.1910731  20.3199445  54.4244529
  57.9644971  23.0262224  52.3632365  57.2456960  23.4426357  52.6305228
  58.3357334  23.5916463  51.8124003  57.9136903  23.1711506  52.3215172
  67.2644552  23.6590073  58.2534361  67.2442479  23.4773368  59.1069139
  67.3123753  24.5302092  58.2293944  67.2679193  23.7606612  58.3757655
  65.2090882  30.2477265  64.1782837  65.1686737  29.6026942  63.5927993
  66.0214200  30.1913883  64.4908249  65.3234035  30.1436232  64.1379786
  61.7998350  36.2995991  54.0807988  61.3858748  35.6370121  53.6911830
  62.4845724  36.4473850  53.5603682  61.8396721  36.2236649  53.9464485
  65.1663644  35.4586076  54.8331605  64.7679927  35.5688347  54.0652425
  64.5514863  35.6668143  55.4158164  65.0162533  35.5059644  54.8062904
  63.7391546  22.0660224  47.7005744  63.1456385  22.3877221  47.1490311
  63.7766823  21.2201320  47.4926851  63.6565935  21.9884553  47.5888516
  70.6985346  15.5173117  55.2333831  70.1916211  14.8102256  55.1655008
  71.4952780  15.1866305  55.3634907  70.7412586  15.3646268  55.2432826
  66.6149362  22.0239729  51.1307495  66.3863055  22.0472430  50.2885853
  66.8747438  21.1997196  51.2502505  66.6195550  21.9055809  51.0232692
  60.8968591  23.8774202  60.7332595  60.3847494  23.2695385  61.0917626
  60.7248087  24.5930794  61.2006571  60.7958228  23.8937501  60.8548818
  55.7434305  22.3211777  63.3834957  55.5736896  22.9813152  62.8383163
  55.3000255  22.5318338  64.1047446  55.6533639  22.4497759  63.4096586
  59.6694125  20.5616275  52.4261690  60.1451491  20.9233355  51.7911871
  59.1682724  21.2172743  52.7061833  59.6659484  20.7110464  52.3738431
  72.9005486  30.0338043  48.2174695  73.2839092  30.7829399  48.4472792
  72.1049600  30.2803863  47.9586684  72.8399269  30.1807737  48.2132269
  64.7737661  21.7998446  63.1734850  65.3309091  21.5712256  62.5413316
  64.4498726  22.5604112  62.8970063  64.8084071  21.8782283  63.0391347
  52.6436370  25.2258643  58.6423446  52.0963089  24.5559288  58.7604315
  53.4328748  24.8588491  58.7066914  52.6788554  25.0723629  58.6692147
  62.4920778  24.8866100  64.1386858  63.2432105  25.2017777  64.4526412
  62.6843355  24.6845271  63.3120779  62.6312192  24.9033482  64.0630253
  61.7120778  22.7057475  45.7935074  62.0919743  22.7237104  45.0086189
  60.9713374  23.1511464  45.6725922  61.6589616  22.7739250  45.6598642
  69.3406068  21.0139666  51.3810653  69.3400295  20.8588323  52.2394929
  69.1362248  21.8602653  51.3252039  69.3105846  21.1160287  51.4998592
  51.4023339  24.4379451  55.7969470  51.2245100  23.9856060  56.5224385
  51.1142362  25.2405612  55.9807947  51.3336293  24.4902008  55.9312972
  67.0646920  25.6937168  55.0346860  67.5600586  24.9760163  54.9950880
  66.2546696  25.3907966  54.9201347  67.0190814  25.5434814  55.0120586
  62.5105532  29.5434981  47.1843864  61.7016855  29.2201655  47.1377174
  63.0180441  28.8368203  47.1172113  62.4655199  29.3916298  47.1674159
  53.1395809  26.9707174  52.9091229  52.2741329  26.9592865  52.7974000
  53.2394625  26.7837397  53.7562368  53.0269976  26.9413236  53.0180173
  69.1298739  28.4440855  57.7223989  69.5553811  27.9215277  57.1694414
  68.7655659  29.0421693  57.2012612  69.1385342  28.4551082  57.5632998
  58.7652819  36.7405073  56.4821334  59.0799378  37.5541461  56.4899116
  59.1746232  36.3555292  57.1503493  58.8720917  36.8033775  56.5825426
  65.7177339  32.1575120  54.0525146  66.1888517  32.8715382  54.2215131
  66.0537517  31.5573870  54.5885016  65.8372454  32.1746584  54.1557522
  67.8054323  33.7676433  66.2317218  67.9151289  32.9784994  66.5873965
  68.1345220  33.6782369  65.4291556  67.8706729  33.6382286  66.1659609
  62.6346834  16.9302590  61.0083241  62.7674739  16.1333584  61.3364216
  63.0191986  17.4568993  61.5881516  62.7103163  16.8902507  61.1426744
  66.3551285  31.9493054  60.8152839  65.8072231  31.3250937  60.5472904
  66.8164314  32.1387326  60.0996918  66.3418495  31.8852104  60.6703270
  65.7079189  13.8532916  57.6064334  64.9025153  13.7430646  57.9232172
  65.5785924  13.9545372  56.7494200  65.5699322  13.8516586  57.5272374
  69.1645149  20.0178408  58.2004031  68.5808138  20.5187615  57.7881598
  69.4849444  19.5107964  57.5668354  69.1258325  20.0170243  58.0462538
  61.7039949  18.9319003  48.4762706  62.5255643  19.1017316  48.2344401
  61.2409600  19.0866264  47.7529003  61.7571111  18.9800736  48.3334350
  60.2935280  16.9261765  59.2561135  60.8379693  16.5852892  59.8465476
  60.3472216  17.7847227  59.3982419  60.3824400  17.0017025  59.3643008
  56.1065839  30.6878181  56.1299942  56.7110697  30.6474015  55.5013763
  55.8993152  31.5349333  56.1603998  56.1654737  30.8066184  56.0416059
  65.9209611  32.9544127  57.3462180  66.7407985  32.8107093  57.6078475
  65.6403689  33.5790325  57.8878618  66.0006355  33.0254479  57.4650119
  51.3417122  29.6712799  55.9998866  51.2441400  28.8609070  56.3088922
  52.1245991  29.6504592  55.6145134  51.4433258  29.5479889  55.9885729
  75.5922947  39.6984629  55.0657987  74.7360842  39.8593127  55.1167103
  75.6390600  38.8276693  55.0863048  75.4722058  39.5935431  55.0764053
  69.9764086  49.2347347  50.8295218  69.2246986  48.8562885  50.6011263
  70.4250098  49.2665781  50.0814029  69.9313753  49.1832954  50.6852720
  78.9016663  45.9671155  64.6718443  79.6083430  45.4723186  64.8005377
  79.0904599  46.4080236  63.9421101  79.0344569  45.9589505  64.5827488
  75.4289046  49.6572717  46.2580765  75.0940415  50.3349638  45.8224987
  75.9415917  49.2678028  45.6697637  75.4554627  49.6997295  46.1067557
  74.9693338  51.6086985  52.1991877  75.3532717  52.1773884  51.6596652
  74.9052479  50.8836496  51.7197693  75.0166765  51.5862449  52.0485739
  78.4374768  41.7576673  57.7089638  78.9830728  42.4361760  57.7683608
  78.3791644  41.6164134  56.8491220  78.5090682  41.8368675  57.5901699
  71.5548842  49.2465739  53.0957991  71.6559205  48.4366093  53.4055118
  70.9590588  49.1522686  52.4657669  71.4821381  49.1130767  53.0484229
  80.2139836  43.1861280  48.5823366  80.0979362  43.9368966  49.0115504
  81.0095723  42.9285234  48.8319453  80.3144426  43.2596127  48.6827458
  71.3949582  54.1643328  54.4972847  72.0387038  54.6056492  54.8869005
  71.7205838  53.3596755  54.4103106  71.5381411  54.1108523  54.5418324
  64.7513887  45.2686026  52.7210324  64.5164071  44.4353678  52.6142593
  64.8899528  45.5490692  51.9071525  64.7369549  45.1869529  52.5852679
  67.0503974  37.4371756  55.6194632  66.4309006  36.8464404  55.4504647
  66.9487838  38.0283192  54.9858955  66.9441650  37.4375839  55.4999622
  72.0970162  47.1755303  49.8692708  72.4186003  47.7160511  49.2654017
  72.7442258  46.6052075  50.0014998  72.2396217  47.1714478  49.7999744
  74.1471870  39.1771298  49.9527095  74.8452035  39.3559426  50.4448558
  74.4624202  38.6541638  49.3297485  74.2967207  39.1265070  49.9329105
  66.7773107  40.9824038  57.8638201  66.6531804  41.5686484  58.4988020
  67.4291392  40.4884234  58.1650476  66.8546757  40.9962843  58.0024130
  74.3359805  45.5641743  49.9406887  74.7753441  44.9558844  50.3861659
  74.1864468  45.1849117  49.1692352  74.3781271  45.4180214  49.8926054
  71.8031448  44.1585755  57.1425712  72.4480451  43.6658198  56.8236661
  72.0433225  44.3010542  57.9691790  71.9342033  44.1063197  57.2175245
  74.3417540  47.0040661  56.7932605  74.6240782  46.2092067  56.5719361
  75.0703700  47.4821248  56.8137666  74.4907103  46.9575258  56.7635620
  72.3198733  34.5463695  54.0348370  71.9902064  34.9974838  53.3652069
  71.6443735  34.4679858  54.5821376  72.1709170  34.6014830  54.0171593
  77.9369142  43.9168925  46.8937656  77.8520437  44.7729891  47.0387225
  78.4253525  43.6413249  47.5619815  77.9958039  44.0026246  47.0139737
  79.5275141  30.5349218  52.2797980  79.2128582  31.2252696  52.7118403
  79.0102083  30.4794000  51.5783481  79.4039612  30.6284106  52.2394930
  78.8687575  40.5353719  48.3935391  78.3399047  40.7513352  49.0532697
  79.3912595  41.2289857  48.3136360  78.8676028  40.6696856  48.4790990
  70.7587183  44.4316935  47.1942859  70.1744398  44.9366967  47.6008723
  70.3557278  44.2059322  46.4539451  70.6126487  44.4725184  47.1447884
  66.3131211  50.1471697  53.9966531  65.8298790  50.8722186  53.9726114
  67.1254530  50.4447827  54.1076688  66.3621959  50.2974050  54.0093810
  72.3845366  48.9403877  56.6016345  71.8672307  48.5811292  55.9977653
  73.0819757  48.4166052  56.6122411  72.4110947  48.8101565  56.5146604
  76.0408958  49.3898691  62.5632518  76.1292303  49.2024832  63.4110728
  76.4698670  48.7436121  62.1637365  76.1171060  49.2661699  62.6304270
  73.6079417  48.6729851  61.5450180  73.0450252  48.2602461  62.0689841
  74.3700441  48.5982757  61.9643324  73.6373866  48.6007252  61.6843181
  75.2164397  40.6782588  45.6711780  75.4560401  40.8860571  44.8587123
  75.5380238  39.8740096  45.7800724  75.3001555  40.5896689  45.5672333
  70.5254688  32.6075983  49.5171318  71.2800656  32.9754300  49.2788368
  70.3482222  32.9815538  50.2850497  70.6109166  32.7174171  49.5956206
  69.1675409  50.6627873  54.1486810  69.8695988  50.1479862  54.2059567
  69.0872892  50.9902024  54.9533686  69.2599169  50.6342099  54.2759603
  70.2154315  40.9003459  63.2767225  70.3874819  40.7909354  64.1252507
  70.7523673  41.5457865  63.0398418  70.3199319  40.9795461  63.3672322
  68.8811752  35.0146302  46.2149431  68.6987325  35.2318183  45.3890423
  69.7437365  35.1285315  46.2708045  68.9816342  35.0636200  46.1003918
  68.4926184  46.8534225  53.6572418  69.3315084  47.0857157  53.7046180
  68.5237953  45.9838536  53.5879454  68.6207902  46.7591171  53.6537063
  69.1178887  47.2735100  57.9585724  69.6577112  47.1306231  58.6289096
  68.4348833  47.6731850  58.3269750  69.0971041  47.3114771  58.1120146
  74.5611471  32.0172713  49.2498454  75.2897632  31.8388668  48.8036611
  74.6506364  32.8590793  49.4605632  74.6818133  32.1156591  49.2151972
  78.5419772  42.9526100  53.1530748  79.2977287  43.3857615  53.1919657
  78.6482097  42.3030870  53.7265384  78.6689943  42.9203584  53.2428774
  81.5799943  46.7799378  53.9033151  81.1435175  46.7836120  54.6592123
  81.2462859  47.4604877  53.4712729  81.4662563  46.8811833  53.9513984
  76.1529017  48.8207710  65.2276302  76.9369433  48.9338558  65.5932044
  75.9525611  47.9948847  65.4234987  76.2395042  48.7154430  65.3110688
  64.5216032  43.4935391  58.1120145  64.2554447  42.6774507  58.2711136
  64.5354596  43.5388546  57.2415661  64.4840755  43.3792295  58.0073627
  81.4997426  33.8213205  56.1462579  82.1423335  33.8911310  56.7324494
  81.7520447  33.1542428  55.6442121  81.6319558  33.7339554  56.1589858
  68.4273779  38.2920475  44.7271904  67.7131956  38.0058654  45.1394336
  68.9117748  38.6317101  45.3678291  68.3933143  38.3002125  44.8827539
  69.2714639  37.0313769  60.7587153  68.5786435  36.5610748  61.0047885
  69.8874966  36.8052073  61.3328860  69.2599169  36.9280901  60.8796306
  76.3099410  50.7317812  58.8742757  75.5114656  50.4917313  59.1316626
  76.7585422  50.7832205  59.6209805  76.2574021  50.7040204  59.0227681
  75.6021097  46.7950429  45.1033712  76.0172246  46.4635453  44.4118208
  74.7713027  46.5619331  44.9753848  75.5409106  46.7121685  44.9824559
  64.9309446  44.2794170  55.3931890  64.7485019  44.2541056  54.5404182
  65.6659115  44.7493108  55.4320799  65.0123510  44.3455532  55.2729808
  81.0009120  44.5145680  52.5364777  81.2364709  44.6590879  51.7091628
  81.1498684  45.2788088  52.9296291  81.0574923  44.6484734  52.4728381
  67.9955198  40.9979173  61.9013998  68.7195170  40.9832203  62.3878893
  68.0971334  41.7074528  61.4035967  68.1173407  41.1003876  61.8992785
  75.3700147  44.4778257  66.7662945  74.5773128  44.7921769  66.9515565
  75.4849074  44.6929726  65.9283730  75.2695558  44.5562094  66.6701280
  78.0431466  41.2012249  51.0557961  78.1378320  41.9401543  51.5097587
  77.4190309  40.7729724  51.4892526  77.9640496  41.2473569  51.1866109
  76.2983940  44.3798461  61.7048242  76.8722801  43.7425705  61.8596806
  76.2198744  44.3802544  60.8357900  76.3717175  44.2863573  61.5994653
  64.8980356  41.1587671  55.5430956  65.4753859  41.0224121  56.1823202
  64.1994418  40.7023455  55.7976541  64.8801378  41.0709937  55.6753246
  78.2954487  43.0460988  44.2894913  78.2134650  43.1163175  45.1549900
  78.9334208  43.6090732  44.0978654  78.3774325  43.1399959  44.3884863
  71.6547658  42.8121726  53.7569440  71.3966903  41.9793461  53.7300739
  71.7096141  43.0379339  52.9161940  71.6247436  42.7219498  53.6289576
  76.7348709  34.9150177  53.8573532  76.0305035  34.4259362  54.0157451
  76.7833683  34.9272651  52.9861977  76.6378760  34.8439825  53.7512872
  70.6282371  40.3659489  54.2434334  70.0531962  40.5251657  54.8798295
  70.2518047  39.7294898  53.7802785  70.4885183  40.2957302  54.2688893
  74.2955659  38.8382838  59.1026713  73.9070092  38.4137056  58.4478904
  73.6310358  39.0864988  59.6103739  74.1402587  38.8121559  59.0814581
  60.3739189  40.0099563  52.2578775  60.4599441  39.6331432  53.0392305
  61.0014987  39.6360009  51.7798733  60.4795740  39.8985046  52.3024252
  78.1182021  32.5357467  56.6150697  78.4992533  31.8535638  57.0018571
  77.3145305  32.2467069  56.4326361  78.0558482  32.3924515  56.6454753
  75.3994597  43.0681443  47.3003520  76.2135236  43.3596335  47.1886291
  75.3353739  42.4141305  46.7261813  75.5097336  43.0146637  47.1992357
  81.6204088  45.7507439  61.7133095  81.3842725  44.9195504  61.5945156
  82.2647317  45.6993046  62.2987940  81.6798758  45.6205127  61.7818989
  71.2702506  46.5402960  52.4275832  71.9076453  46.3014708  52.9727625
  71.6957577  46.7440119  51.6928992  71.4278672  46.5353970  52.3992989
  65.9615148  48.7791297  56.3110136  66.0019293  49.0506148  55.4829915
  66.5209672  49.3033205  56.7267923  66.0498494  48.8967052  56.2502024
  71.9105321  41.7605250  46.7650721  72.2950473  41.5412957  47.5167266
  71.6616941  42.5868195  46.8951798  71.9307393  41.8503396  46.8951798
  72.0773861  35.0411665  66.4813305  71.7627302  35.8111228  66.2182868
  71.7563794  34.4781921  65.8965532  71.9832780  35.0721934  66.3554655
  73.6523978  47.0175383  54.1069618  73.7262986  46.8550555  54.9611468
  74.4693484  47.2065572  53.8630100  73.7840336  47.0212125  54.1967644
  67.4129734  47.3633245  51.1364062  66.5867852  47.6094983  51.0098340
  67.4741726  47.2845326  52.0026120  67.3003901  47.3878194  51.2453006
  69.6305758  33.4302186  52.0959502  68.7628184  33.5024786  52.1617111
  69.9180962  34.2324265  52.2847477  69.5445506  33.5596334  52.1334268
  78.7538647  33.5780046  60.4270824  79.4992239  33.3889856  60.0134249
  78.3375951  34.1038284  59.8684680  78.8023621  33.6282191  60.2835397
  72.1928563  49.9810126  48.8383091  72.4826862  49.5899107  48.1142318
  72.9232044  50.1626831  49.2788367  72.3435448  49.9503939  48.7965898
  72.7823309  44.7827872  59.9236222  72.2835002  45.4943639  60.0021110
  73.5923533  45.1028538  59.8854384  72.8279415  44.9354720  59.9292790
  70.1334479  51.9577508  51.9043241  69.9134774  51.6674863  52.6969908
  69.9129001  51.2992463  51.3761154  70.0682073  51.8177217  51.9432150
  69.0451426  44.0450825  54.1698943  68.7564675  43.4188296  54.7044670
  69.9134774  43.9871112  54.2363623  69.1311678  43.9438369  54.2589897
  79.8329324  39.1885608  54.4880925  79.4894090  38.4675943  54.8388174
  79.9322367  38.9799459  53.6459283  79.7971367  39.0509811  54.4152605
  72.3002435  53.3306898  50.6873934  72.9526493  52.7983340  50.9164960
  71.6028043  52.9775550  51.0741808  72.2933153  53.1996421  50.7786101
  69.2483700  45.6846076  50.0941308  70.0029668  46.0659115  50.3076770
  68.6554312  46.1357219  50.5488004  69.2720413  45.8074903  50.1924186
  80.2942353  45.6511312  50.0304913  80.8600386  46.3104522  49.9463456
  79.6470256  45.9961010  50.5021315  80.2821109  45.7993253  50.0877669
  71.7090367  37.6408916  65.2198520  70.8990142  37.9466696  65.1088362
  72.1865053  38.3614498  65.3351104  71.6593845  37.7923517  65.2205591
  70.5681926  46.8554637  55.4681423  70.0462680  46.9954929  56.1533288
  70.9555946  46.0965301  55.6583541  70.5485627  46.7640161  55.5982500
  67.5573110  36.9060446  49.5376378  67.2697906  36.5361716  48.8008325
  68.2443578  37.3755301  49.2760083  67.6162007  36.9207415  49.3891454
  76.7648931  48.5950096  49.4541992  76.5235607  47.8617957  49.0469057
  76.9450264  49.1436953  48.8008325  76.7556555  48.5672487  49.2972215
  71.9948252  43.8858656  50.8662914  71.7991034  44.4933391  50.2723217
  72.2182597  43.1926600  50.3854588  71.9982893  43.8736182  50.7078995
  70.3926782  40.7713394  50.9843783  71.1149434  40.9354552  50.5247589
  69.9134775  41.4923059  50.8783122  70.4290512  40.9011624  50.9009397
  78.3520289  37.1077193  56.3640468  77.5131390  37.1338472  56.1278731
  78.4224657  37.7547928  56.9445814  78.2388683  37.2073319  56.4149584
  68.0434398  43.1771466  60.0897923  68.5555495  43.4555720  59.4406682
  67.7570741  43.9160760  60.4560736  68.0769262  43.3273820  60.0487801
  76.7989568  34.0062570  51.0968084  77.5015920  33.8070318  50.6188042
  76.5333756  33.2338512  51.4036927  76.8636200  33.8625536  51.0713525
  82.2277813  42.3145180  53.6501709  82.1411788  42.4700606  54.5036488
  81.7728293  42.9583255  53.2761114  82.1481070  42.4320935  53.7208816
  65.1301305  37.6841658  50.3861659  65.2317441  38.4867820  50.7142634
  65.9257192  37.4828994  50.0884740  65.2629210  37.7727557  50.3897014
  71.5618124  35.2697855  60.1498964  71.3701321  35.2852989  60.9998388
  72.4116720  35.4661529  60.1265619  71.6593846  35.3012206  60.2722259
  65.9465037  37.7988836  58.1282781  65.8050529  36.9472777  58.2527289
  66.2305600  37.8417497  57.3044987  65.9672883  37.6788586  58.0250405
  76.1003629  39.6355927  52.2727269  75.8538344  39.5551678  53.1064058
  76.4288752  38.8509395  52.0789796  76.1124873  39.5082192  52.3674792
  79.9951678  46.3439286  56.0614050  79.8566037  47.0420332  56.5662792
  79.2151676  46.1887942  55.7050232  79.8594905  46.4239453  56.0840324
  78.3329763  42.6435661  62.3136432  78.3277802  41.7715478  62.3178858
  79.0390757  42.8423831  61.8405887  78.4374767  42.5439536  62.2443467
  72.0600657  42.3712645  61.6850252  72.2044032  42.9513853  61.0493362
  72.4076305  42.7488942  62.3900107  72.1328118  42.5133349  61.6949247
  74.2320574  41.5702814  59.4675384  73.4843888  41.7633828  59.0623662
  74.3862099  40.7448033  59.2299505  74.1443001  41.4767925  59.3720789
  71.1328412  50.5615417  58.5511279  71.2817975  50.0018333  57.8984683
  71.9128414  50.6407419  58.9343798  71.2702505  50.4900983  58.5108228
  81.4905051  45.7017540  46.8230549  81.1111860  44.9154678  46.8159839
  80.8271296  46.2504397  46.6802194  81.3363526  45.6662364  46.8011346
  73.6581712  50.7330060  59.8295770  73.5825383  50.0638871  60.3846558
  73.5871571  51.4347848  60.3436436  73.6362319  50.7374967  59.9872618
  74.4722351  35.4653364  60.3570787  74.9294965  36.1977339  60.4843579
  74.5478680  35.0419830  61.1158043  74.5513321  35.5110602  60.4871864
  66.7155342  35.7119184  61.4460231  66.1797532  35.0999542  61.7620998
  66.7773107  36.2867320  62.0993898  66.6450975  35.7066112  61.5895658
  78.9449677  28.6443240  54.2264630  79.0633245  29.1019703  53.4931933
  78.7711853  27.8388501  53.9400848  78.9368848  28.5937012  54.0765564
  74.3151959  49.2531059  50.6619376  75.0801850  48.9840703  50.3402040
  74.2130049  48.7681069  51.3789438  74.4133455  49.1420623  50.7199203
  72.3504729  37.4555468  57.2012611  71.5600804  37.2746928  57.5229947
  72.7465352  36.6782421  57.1842906  72.2921605  37.3142929  57.2465160
  76.8370620  46.2843243  42.6419325  77.6043605  46.3443368  42.2325177
  76.3901929  45.7123684  42.1575643  76.8844047  46.2079818  42.5097035
  77.7348415  45.0897898  54.9272057  77.0593417  44.8583131  55.4285444
  77.7440791  44.4819081  54.3014162  77.6366920  44.9656824  54.9088209
  74.8642559  39.9315727  61.6836110  74.8001700  40.7925684  61.5556247
  75.0039747  39.6147721  60.8831661  74.8758029  40.0115894  61.5464323
  79.7365150  47.9463031  47.1582235  79.8184987  48.7530017  46.8343686
  80.2214892  47.9658990  47.8823009  79.8202308  48.0683693  47.2169134
  73.5461653  42.6247867  55.8252313  73.1223902  42.8252366  55.0891331
  73.3706508  41.7776715  55.9376613  73.4572534  42.5296648  55.7326003
  73.0473346  54.1398380  58.2873770  73.5369277  53.4409169  58.1049435
  72.4757579  53.8422250  58.8749828  73.0357876  53.9924603  58.3474811
  68.8344098  43.1199918  51.2580286  68.9908717  43.0546721  52.1136278
  69.1744691  43.8948471  51.0458965  68.9077333  43.2249116  51.3534880
  75.3723243  42.4957802  50.1273649  75.9138788  41.9928183  50.5912269
  75.6869802  42.4422996  49.3163134  75.4987640  42.4137223  50.0757461
  79.2440350  46.7060449  67.2400561  80.0575215  46.4345598  67.4005694
  79.0835316  46.4067989  66.4360757  79.3410298  46.6215375  67.1445967
  73.5409692  47.8875153  47.4113677  73.6102513  47.0289692  47.5506677
  74.3198147  48.1047034  47.0832701  73.6662542  47.7928017  47.3830834
  76.5212512  37.3894106  60.1795949  76.7354482  36.7505020  59.6259303
  75.9046411  37.8339930  59.7503811  76.4617841  37.3604250  60.0346380
  77.9317180  50.3112855  51.6250170  77.5396972  50.0079570  50.9073036
  78.0870252  51.1481945  51.4355124  77.8970770  50.3896691  51.4906667
  65.4078359  40.3034869  51.5741053  65.7877324  40.7219414  50.9101320
  64.8333724  40.8848324  51.8809896  65.3789684  40.4512727  51.5217794
  78.6851600  38.9983171  61.1179256  77.8728282  38.6909062  61.1992429
  79.1441535  38.5182172  61.6821969  78.6331985  38.8819664  61.2133851
  78.0956855  46.8762843  51.5656201  77.7371509  47.0477486  52.3420233
  77.6095565  47.3376049  51.0084199  77.9715552  46.9701814  51.5981470
  75.9127241  30.4994042  55.1683292  75.0420799  30.4732763  55.1216602
  76.1667582  30.3271234  54.3509138  75.8220801  30.4704186  55.0403429
  72.8845220  42.5562009  44.1056435  73.1737745  43.3326891  44.3800009
  72.9717019  42.0450740  44.8070934  72.9399476  42.5953927  44.2498933
  75.7805107  40.4043243  65.9007959  76.2504739  41.0285359  66.2875833
  75.8266988  39.7360218  66.4601173  75.8572983  40.3977923  66.0408030
  72.9376381  32.5100270  56.6256762  72.4214870  31.8180462  56.7508341
  72.3770310  33.1771047  56.5719361  72.7782894  32.5063528  56.6362828
  75.0068615  33.0493230  58.4549615  74.6200368  33.0742262  59.2363145
  74.5201552  32.4834909  58.0024132  74.8781123  32.9688981  58.5037519
  79.2561594  47.7666739  62.5123402  79.8941315  47.2726935  62.1785858
  78.6135686  47.6944140  61.9275628  79.2555821  47.6825748  62.3765757
  80.9818594  39.6155885  57.0789317  80.5546202  39.5282234  56.3237417
  80.3444647  39.7233661  57.6644161  80.8248201  39.6188545  57.0534759
  74.6725756  29.9360216  60.7459875  75.3018874  30.4720516  60.4680945
  74.8411619  29.8437575  61.5973441  74.7903551  30.0021578  60.8308403
  74.4739671  34.7231411  63.0186287  75.3013101  34.4516559  63.0744901
  74.4947517  35.5192252  63.3750105  74.5992521  34.8011165  63.0801469
  79.3115851  48.4586548  59.1528758  80.1008229  48.1075612  59.2730840
  79.4859448  49.2722936  58.8905392  79.4536132  48.5272405  59.1316626
  69.0509161  41.8695273  56.2056547  68.2097168  41.7699148  56.4135441
  69.2599169  42.6390754  56.5570868  68.9573854  41.9687317  56.2883862
  66.5284728  39.4914810  54.0341298  66.1341426  39.5657822  53.2591408
  65.9724845  39.8772757  54.5849660  66.3887540  39.5596585  54.0008958
  78.1649675  32.4696104  53.7145177  78.3699268  32.4018412  54.5602174
  77.8376099  33.2754926  53.6466354  78.1464923  32.5782045  53.8304832
  72.8625826  39.7976673  55.4554145  72.5588963  39.2432661  56.0564552
  72.1605247  39.9768883  54.9682179  72.7142036  39.7421455  55.4723850
  71.9191923  37.1077192  50.0198847  72.1951657  36.3896105  49.6076414
  72.5190592  37.7062112  49.8119953  72.0485188  37.0897563  49.9279608
  70.9244177  47.0126393  60.1626243  70.8164532  47.0228455  61.0288301
  71.1339958  47.8381174  59.9731196  70.9394288  47.1367468  60.2630334
  81.4183362  33.0227869  53.1947942  80.8057676  33.5098271  53.5801674
  81.5147537  32.3471359  53.7385593  81.3421260  32.9946177  53.3326800
  75.4202443  34.7790710  48.2945442  75.8746190  34.9501270  49.0193286
  75.8942489  34.1658820  47.8943217  75.5570764  34.7141595  48.3419203
  68.9417969  44.2639036  57.6248180  68.3505902  44.9048534  57.5951195
  69.7038992  44.6876653  57.5979480  68.9666230  44.4214874  57.6163327
  69.3378592  35.4241033  58.2916198  69.7980073  35.4979963  59.0291321
  69.3834698  36.2222287  57.9416019  69.4129147  35.5535181  58.3488954
  70.9861941  36.0907728  62.8588225  70.5947507  35.4441075  63.2944003
  71.1547804  36.6819164  63.4782480  70.9532852  36.0821996  63.0150931
  78.7007485  49.7148347  55.0580205  78.5027174  50.2039162  54.3636416
  78.0795196  49.9189589  55.6364338  78.5795050  49.8164886  55.0403428
  72.7615463  41.4833244  49.3990449  73.5057508  41.8707520  49.6373399
  72.9076160  40.6390669  49.5630937  72.8926049  41.4163717  49.4584419
  74.6795039  33.2783503  54.4322310  73.8331084  33.4506311  54.3063660
  74.6766171  32.4732847  54.7688139  74.5542189  33.1844532  54.4633437
  75.7493339  37.0558717  55.2984368  75.2753294  36.5300479  55.8089679
  76.1211475  36.5088190  54.7299230  75.7343228  36.8974714  55.2899515
  66.1266369  39.0530224  60.6667914  66.9891983  38.9525933  60.5805244
  65.7958152  38.4724933  60.1053486  66.2051566  38.9521851  60.5713320
  82.0130070  42.1161093  56.7091149  81.7728293  41.2767508  56.7133575
  82.4922077  42.1961260  57.4331922  82.0482254  42.0042493  56.8165951
  77.6776839  37.9495272  48.3610122  77.1499858  38.0324016  47.6715831
  78.1372547  38.6913143  48.3574767  77.6678689  38.0715934  48.2584817
  80.6181287  43.2812500  60.5925453  81.3415486  42.8285026  60.4136473
  80.3531249  43.5617165  59.8097781  80.6862560  43.2563468  60.4504168
  69.4868155  37.8772673  57.3278332  68.8621226  37.8891065  56.7204285
  69.1513750  38.3532848  57.9769572  69.3453647  37.9491190  57.3334901
  69.6709904  36.2197792  43.3851017  69.3222708  36.8717517  43.8482566
  69.1906350  36.2054905  42.6574888  69.5480148  36.3140845  43.3462108
  66.1993831  45.9373133  58.7682096  65.6693756  45.2465572  58.8177071
  66.4718924  45.9283319  57.9394805  66.1618553  45.8340265  58.6529512
  77.2313921  46.5198836  47.4919779  77.9548120  46.9856949  47.3484352
  76.7914513  46.5872445  46.7417376  77.2729614  46.5982672  47.3604560
  76.4000077  43.3796378  58.7420468  75.7857070  42.8354428  59.0369103
  76.9167362  42.8660614  58.2626284  76.3855739  43.2232787  58.7144696
  75.6396374  44.4500648  56.4764767  75.2123982  43.8250366  56.0430202
  75.6321318  44.1675570  57.3023774  75.5755515  44.3153428  56.5344594
  68.7558901  39.4865821  59.5453201  68.9152388  38.7309145  59.9504923
  68.5751794  40.0356760  60.1993938  68.7524260  39.4559635  59.7015907
  76.6979204  31.6527056  60.1003990  76.2019765  31.8490731  59.4095557
  77.4548266  32.0519725  59.9292792  76.7366029  31.7404790  59.9724127
  73.9682083  35.3269402  56.6907301  73.9924571  34.7929515  56.0020081
  74.2193557  34.8186711  57.3532891  74.0092002  35.1730306  56.6871945
  61.4789673  42.6100897  56.1250445  61.3733122  42.5647742  55.2602529
  60.7289893  42.9554678  56.4064730  61.3525276  42.6541806  56.0387774
  70.2483406  34.0540221  56.0713045  70.2881777  34.5549427  56.7847752
  69.4233070  34.1450614  55.8018968  70.1322932  34.1422037  56.1363583
  72.4313019  43.6200961  64.1733340  71.5808649  43.7572675  64.3090984
  72.5941146  42.8864739  64.6181041  72.3296882  43.5315062  64.2588939
  71.6697769  40.5700730  58.3686944  70.8389699  40.7374548  58.1622192
  71.6149286  40.1936681  59.1535829  71.5387184  40.5390462  58.4535472
  69.4781552  34.0609623  64.0043355  70.1034256  33.5171756  64.2772787
  69.0232032  33.5804541  63.4351145  69.5029813  33.9099105  63.9604948
  70.0433813  38.8456322  48.8977062  70.1836774  39.3428786  49.6005703
  70.5416346  38.1442616  49.0391275  70.1374894  38.8158301  49.0228641
  70.0734035  39.7123433  46.2269638  70.7079115  40.3083858  46.1619100
  70.1559646  39.4126891  47.0415509  70.1790586  39.7564341  46.3372725
  71.6513018  35.6437408  46.2015080  71.9728859  35.1640491  45.5474343
  71.9139962  36.4537054  46.0105892  71.7379044  35.6927306  46.0770573
  74.8809991  46.6656283  59.7213897  74.3735082  47.2192130  60.1654527
  74.5836637  46.7264573  58.9032671  74.7614876  46.7562594  59.6662353
  77.0472173  35.0309602  58.5638560  77.4727245  34.5782129  57.9522086
  76.4329166  34.4769673  58.8403347  77.0200818  34.8823579  58.5143585
  66.5787023  41.9091274  49.4959185  67.0879252  42.5055781  49.8770490
  67.0521295  41.6417247  48.8135604  66.7230399  41.9577089  49.4513707
  77.4917771  50.5819540  47.6517840  76.7747081  50.4080403  47.1865077
  78.1424509  50.3472113  47.1193326  77.4819622  50.5215333  47.5047058
  75.4866396  31.5024702  51.9729137  74.8434714  31.3522349  52.5414275
  75.1465803  31.2567047  51.2078241  75.3411473  31.4436825  51.9432152
  80.0765742  39.4584129  51.3959145  79.4056932  40.0013831  51.2672211
  80.7705493  39.9278984  51.1540840  80.0794610  39.6082400  51.3414673
  74.1252476  51.5980841  56.6270903  73.9018131  50.8399670  56.9954930
  73.6362319  51.6278862  55.9051343  74.0195925  51.4903066  56.5747644
  80.2393870  35.9140013  54.3049518  80.5921480  35.4869736  54.9795317
  79.3808671  35.8290856  54.4350595  80.1643315  35.8384753  54.4244529
  68.9377555  38.5447532  52.3632365  68.2189544  38.9611665  52.6305228
  69.3089917  39.1101771  51.8124003  68.8869487  38.6896814  52.3215172
  78.2377136  39.1775381  58.2534361  78.2175063  38.9958676  59.1069139
  78.2856336  40.0487400  58.2293944  78.2411777  39.2791919  58.3757655
  76.1823466  45.7662573  64.1782837  76.1419320  45.1212250  63.5927993
  76.9946784  45.7099191  64.4908249  76.2966619  45.6621540  64.1379786
  72.7730933  51.8181299  54.0807988  72.3591332  51.1555429  53.6911830
  73.4578307  51.9659158  53.5603682  72.8129305  51.7421957  53.9464485
  76.1396227  50.9771384  54.8331605  75.7412510  51.0873655  54.0652425
  75.5247447  51.1853451  55.4158164  75.9895117  51.0244952  54.8062904
  74.7124129  37.5845532  47.7005744  74.1188969  37.9062529  47.1490311
  74.7499407  36.7386628  47.4926851  74.6298518  37.5069860  47.5888516
  81.6717930  31.0358424  55.2333831  81.1648795  30.3287564  55.1655008
  82.4685364  30.7051613  55.3634907  81.7145169  30.8831576  55.2432826
  77.5881946  37.5425037  51.1307495  77.3595639  37.5657738  50.2885853
  77.8480022  36.7182504  51.2502505  77.5928134  37.4241117  51.0232692
  71.8701174  39.3959510  60.7332595  71.3580077  38.7880693  61.0917626
  71.6980670  40.1116102  61.2006571  71.7690811  39.4122809  60.8548818
  66.7166889  37.8397085  63.3834957  66.5469479  38.4998460  62.8383163
  66.2732839  38.0503646  64.1047446  66.6266223  37.9683067  63.4096586
  70.6426708  36.0801583  52.4261690  71.1184075  36.4418663  51.7911871
  70.1415308  36.7358051  52.7061833  70.6392067  36.2295772  52.3738431
  75.7470245  37.3183754  63.1734850  76.3041675  37.0897564  62.5413316
  75.4231310  38.0789420  62.8970063  75.7816655  37.3967591  63.0391347
  63.6168953  40.7443951  58.6423446  63.0695673  40.0744596  58.7604315
  64.4061332  40.3773799  58.7066914  63.6521137  40.5908937  58.6692147
  73.4653362  40.4051408  64.1386858  74.2164689  40.7203085  64.4526412
  73.6575938  40.2030579  63.3120779  73.6044776  40.4218790  64.0630253
  72.6853361  38.2242783  45.7935074  73.0652326  38.2422412  45.0086189
  71.9445958  38.6696772  45.6725922  72.6322199  38.2924557  45.6598642
  80.3138652  36.5324974  51.3810653  80.3132878  36.3773631  52.2394929
  80.1094832  37.3787961  51.3252039  80.2838430  36.6345595  51.4998592
  62.3755923  39.9564758  55.7969470  62.1977684  39.5041367  56.5224385
  62.0874945  40.7590920  55.9807947  62.3068876  40.0087316  55.9312972
  78.0379504  41.2122476  55.0346860  78.5333169  40.4945471  54.9950880
  77.2279280  40.9093274  54.9201347  77.9923397  41.0620122  55.0120586
  73.4838116  45.0620289  47.1843864  72.6749438  44.7386963  47.1377174
  73.9913024  44.3553511  47.1172113  73.4387782  44.9101605  47.1674159
  64.1128393  42.4892482  52.9091229  63.2473912  42.4778173  52.7974000
  64.2127209  42.3022705  53.7562368  64.0002560  42.4598543  53.0180173
  80.1031323  43.9626163  57.7223989  80.5286394  43.4400585  57.1694414
  79.7388243  44.5607001  57.2012612  80.1117925  43.9736390  57.5632998
  69.7385403  52.2590381  56.4821334  70.0531962  53.0726769  56.4899116
  70.1478816  51.8740600  57.1503493  69.8453501  52.3219083  56.5825426
  76.6909922  47.6760428  54.0525146  77.1621101  48.3900690  54.2215131
  77.0270101  47.0759178  54.5885016  76.8105037  47.6931892  54.1557522
  78.7786907  49.2861741  66.2317218  78.8883872  48.4970302  66.5873965
  79.1077804  49.1967677  65.4291556  78.8439313  49.1567594  66.1659609
  73.6079417  32.4487898  61.0083241  73.7407323  31.6518892  61.3364216
  73.9924570  32.9754301  61.5881516  73.6835746  32.4087815  61.1426744
  77.3283869  47.4678362  60.8152839  76.7804815  46.8436245  60.5472904
  77.7896897  47.6572634  60.0996918  77.3151078  47.4037412  60.6703270
  76.6811772  29.3718224  57.6064334  75.8757736  29.2615954  57.9232172
  76.5518508  29.4730680  56.7494200  76.5431905  29.3701894  57.5272374
  80.1377733  35.5363716  58.2004031  79.5540722  36.0372923  57.7881598
  80.4582027  35.0293272  57.5668354  80.0990908  35.5355551  58.0462538
  72.6772532  34.4504311  48.4762706  73.4988227  34.6202624  48.2344401
  72.2142183  34.6051572  47.7529003  72.7303694  34.4986044  48.3334350
  71.2667864  32.4447073  59.2561135  71.8112277  32.1038200  59.8465476
  71.3204800  33.3032535  59.3982419  71.3556983  32.5202333  59.3643008
  67.0798423  46.2063489  56.1299942  67.6843280  46.1659323  55.5013763
  66.8725735  47.0534641  56.1603998  67.1387320  46.3251492  56.0416059
  76.8942195  48.4729434  57.3462180  77.7140569  48.3292400  57.6078475
  76.6136273  49.0975633  57.8878618  76.9738938  48.5439786  57.4650119
  62.3149705  45.1898107  55.9998866  62.2173983  44.3794378  56.3088922
  63.0978575  45.1689900  55.6145134  62.4165842  45.0665197  55.9885729
  80.9496670  64.7532655  50.8295218  80.1979569  64.3748193  50.6011263
  81.3982682  64.7851089  50.0814029  80.9046337  64.7018262  50.6852720
  75.7246470  60.7871334  52.7210324  75.4896655  59.9538986  52.6142593
  75.8632111  61.0675999  51.9071525  75.7102133  60.7054837  52.5852679
  78.0236558  52.9557064  55.6194632  77.4041589  52.3649712  55.4504647
  77.9220421  53.5468500  54.9858955  77.9174233  52.9561147  55.4999622
  77.7505691  56.5009346  57.8638201  77.6264388  57.0871792  58.4988020
  78.4023975  56.0069542  58.1650476  77.8279340  56.5148150  58.0024130
  81.7319766  59.9502243  47.1942859  81.1476982  60.4552275  47.6008723
  81.3289862  59.7244630  46.4539451  81.5859070  59.9910492  47.1447884
  77.2863795  65.6657005  53.9966531  76.8031373  66.3907494  53.9726114
  78.0987113  65.9633135  54.1076688  77.3354543  65.8159358  54.0093810
  81.4987271  48.1261291  49.5171318  82.2533239  48.4939608  49.2788368
  81.3214806  48.5000846  50.2850497  81.5841750  48.2359479  49.5956206
  80.1407992  66.1813180  54.1486810  80.8428572  65.6665170  54.2059567
  80.0605475  66.5087332  54.9533686  80.2331753  66.1527407  54.2759603
  81.1886899  56.4188767  63.2767225  81.3607403  56.3094662  64.1252507
  81.7256256  57.0643173  63.0398418  81.2931903  56.4980769  63.3672322
  79.8544336  50.5331610  46.2149431  79.6719909  50.7503491  45.3890423
  80.7169949  50.6470623  46.2708045  79.9548925  50.5821508  46.1003918
  79.4658768  62.3719532  53.6572418  80.3047667  62.6042465  53.7046180
  79.4970537  61.5023844  53.5879454  79.5940485  62.2776479  53.6537063
  80.0911471  62.7920408  57.9585724  80.6309696  62.6491539  58.6289096
  79.4081417  63.1917158  58.3269750  80.0703625  62.8300079  58.1120146
  75.4948616  59.0120698  58.1120145  75.2287031  58.1959815  58.2711136
  75.5087180  59.0573854  57.2415661  75.4573338  58.8977603  58.0073627
  79.4006363  53.8105783  44.7271904  78.6864540  53.5243962  45.1394336
  79.8850331  54.1502409  45.3678291  79.3665726  53.8187433  44.8827539
  80.2447222  52.5499077  60.7587153  79.5519019  52.0796056  61.0047885
  80.8607550  52.3237381  61.3328860  80.2331752  52.4466209  60.8796306
  75.9042029  59.7979478  55.3931890  75.7217603  59.7726364  54.5404182
  76.6391698  60.2678416  55.4320799  75.9856093  59.8640840  55.2729808
  78.9687781  56.5164481  61.9013998  79.6927753  56.5017511  62.3878893
  79.0703918  57.2259836  61.4035967  79.0905990  56.6189184  61.8992785
  75.8712940  56.6772979  55.5430956  76.4486442  56.5409429  56.1823202
  75.1727002  56.2208763  55.7976541  75.8533961  56.5895245  55.6753246
  81.6014954  55.8844797  54.2434334  81.0264545  56.0436965  54.8798295
  81.2250630  55.2480206  53.7802785  81.4617766  55.8142610  54.2688893
  71.3471773  55.5284871  52.2578775  71.4332025  55.1516740  53.0392305
  71.9747570  55.1545317  51.7798733  71.4528324  55.4170354  52.3024252
  76.9347732  64.2976604  56.3110136  76.9751877  64.5691456  55.4829915
  77.4942256  64.8218513  56.7267923  77.0231078  64.4152360  56.2502024
  78.3862318  62.8818553  51.1364062  77.5600436  63.1280291  51.0098340
  78.4474309  62.8030634  52.0026120  78.2736485  62.9063502  51.2453006
  80.6038342  48.9487494  52.0959502  79.7360767  49.0210094  52.1617111
  80.8913546  49.7509573  52.2847477  80.5178090  49.0781642  52.1334268
  81.1067063  67.4762816  51.9043241  80.8867358  67.1860171  52.6969908
  80.8861585  66.8177771  51.3761154  81.0414657  67.3362524  51.9432150
  80.0184010  59.5636133  54.1698943  79.7297258  58.9373604  54.7044670
  80.8867358  59.5056420  54.2363623  80.1044262  59.4623677  54.2589897
  80.2216283  61.2031384  50.0941308  80.9762251  61.5844423  50.3076770
  79.6286896  61.6542527  50.5488004  80.2452997  61.3260211  50.1924186
  81.5414510  62.3739945  55.4681423  81.0195263  62.5140237  56.1533288
  81.9288530  61.6150609  55.6583541  81.5218211  62.2825469  55.5982500
  78.5305694  52.4245754  49.5376378  78.2430490  52.0547024  48.8008325
  79.2176162  52.8940609  49.2760083  78.5894591  52.4392723  49.3891454
  81.3659365  56.2898702  50.9843783  82.0882017  56.4539860  50.5247589
  80.8867358  57.0108367  50.8783122  81.4023096  56.4196932  50.9009397
  79.0166982  58.6956774  60.0897923  79.5288079  58.9741028  59.4406682
  78.7303325  59.4346068  60.4560736  79.0501845  58.8459128  60.0487801
  76.1033888  53.2026966  50.3861659  76.2050025  54.0053128  50.7142634
  76.8989775  53.0014302  50.0884740  76.2361794  53.2912865  50.3897014
  76.9197620  53.3174144  58.1282781  76.7783112  52.4658085  58.2527289
  77.2038184  53.3602805  57.3044987  76.9405467  53.1973894  58.0250405
  77.6887926  51.2304492  61.4460231  77.1530115  50.6184850  61.7620998
  77.7505690  51.8052628  62.0993898  77.6183558  51.2251420  61.5895658
  79.8076682  58.6385226  51.2580286  79.9641301  58.5732029  52.1136278
  80.1477275  59.4133779  51.0458965  79.8809916  58.7434424  51.3534880
  76.3810943  55.8220177  51.5741053  76.7609908  56.2404722  50.9101320
  75.8066308  56.4033632  51.8809896  76.3522268  55.9698035  51.5217794
  80.0241745  57.3880581  56.2056547  79.1829751  57.2884455  56.4135441
  80.2331753  58.1576062  56.5570868  79.9306437  57.4872625  56.2883862
  77.5017312  55.0100118  54.0341298  77.1074009  55.0843130  53.2591408
  76.9457428  55.3958065  54.5849660  77.3620124  55.0781893  54.0008958
  81.8976760  62.5311701  60.1626243  81.7897115  62.5413763  61.0288301
  82.1072542  63.3566482  59.9731196  81.9126872  62.6552776  60.2630334
  80.3111175  50.9426341  58.2916198  80.7712657  51.0165271  59.0291321
  80.3567282  51.7407595  57.9416019  80.3861731  51.0720488  58.3488954
  81.9594525  51.6093036  62.8588225  81.5680090  50.9626383  63.2944003
  82.1280388  52.2004472  63.4782480  81.9265435  51.6007304  63.0150931
  77.0998953  54.5715532  60.6667914  77.9624566  54.4711241  60.5805244
  76.7690736  53.9910241  60.1053486  77.1784149  54.4707159  60.5713320
  80.4600739  53.3957981  57.3278332  79.8353809  53.4076373  56.7204285
  80.1246334  53.8718156  57.9769572  80.3186231  53.4676498  57.3334901
  80.6442488  51.7383100  43.3851017  80.2955292  52.3902825  43.8482566
  80.1638934  51.7240213  42.6574888  80.5212732  51.8326153  43.3462108
  77.1726415  61.4558441  58.7682096  76.6426339  60.7650880  58.8177071
  77.4451508  61.4468626  57.9394805  77.1351137  61.3525573  58.6529512
  79.7291484  55.0051129  59.5453201  79.8884971  54.2494453  59.9504923
  79.5484378  55.5542068  60.1993938  79.7256843  54.9744943  59.7015907
  72.4522257  58.1286205  56.1250445  72.3465706  58.0833050  55.2602529
  71.7022477  58.4739986  56.4064730  72.3257860  58.1727113  56.0387774
  81.2215989  49.5725529  56.0713045  81.2614361  50.0734735  56.7847752
  80.3965654  49.6635922  55.8018968  81.1055515  49.6607345  56.1363583
  80.4514136  49.5794931  64.0043355  81.0766839  49.0357064  64.2772787
  79.9964616  49.0989849  63.4351145  80.4762396  49.4284413  63.9604948
  81.0166396  54.3641630  48.8977062  81.1569358  54.8614094  49.6005703
  81.5148929  53.6627924  49.0391275  81.1107477  54.3343609  49.0228641
  81.0466619  55.2308741  46.2269638  81.6811698  55.8269166  46.1619100
  81.1292230  54.9312199  47.0415509  81.1523170  55.2749649  46.3372725
  77.5519607  57.4276582  49.4959185  78.0611836  58.0241089  49.8770490
  78.0253879  57.1602555  48.8135604  77.6962982  57.4762397  49.4513707
  79.9110138  54.0632840  52.3632365  79.1922128  54.4796973  52.6305228
  80.2822501  54.6287079  51.8124003  79.8602070  54.2082122  52.3215172
  77.6899473  53.3582393  63.3834957  77.5202063  54.0183768  62.8383163
  77.2465422  53.5688954  64.1047446  77.5998806  53.4868375  63.4096586
  81.6159292  51.5986891  52.4261690  82.0916658  51.9603971  51.7911871
  81.1147892  52.2543359  52.7061833  81.6124651  51.7481080  52.3738431
  74.5901537  56.2629259  58.6423446  74.0428256  55.5929904  58.7604315
  75.3793915  55.8959106  58.7066914  74.6253721  56.1094245  58.6692147
  73.3488507  55.4750066  55.7969470  73.1710268  55.0226675  56.5224385
  73.0607529  56.2776228  55.9807947  73.2801460  55.5272624  55.9312972
  75.0860976  58.0077790  52.9091229  74.2206496  57.9963481  52.7974000
  75.1859792  57.8208013  53.7562368  74.9735143  57.9783851  53.0180173
  80.7117986  67.7775689  56.4821334  81.0264545  68.5912077  56.4899116
  81.1211400  67.3925907  57.1503493  80.8186084  67.8404391  56.5825426
  78.0531006  61.7248797  56.1299942  78.6575864  61.6844631  55.5013763
  77.8458319  62.5719949  56.1603998  78.1119904  61.8436800  56.0416059
  73.2882289  60.7083415  55.9998866  73.1906567  59.8979686  56.3088922
  74.0711158  60.6875208  55.6145134  73.3898425  60.5850505  55.9885729
  58.6982327  10.6540170  37.7635265  57.9465226  10.2755709  37.5351310
  59.1468338  10.6858604  37.0154075  58.6531994  10.6025777  37.6192767
  64.1507287  11.0765540  33.1920812  63.8158655  11.7542461  32.7565034
  64.6634157  10.6870851  32.6037684  64.1772868  11.1190118  33.0407604
  63.6911578  13.0279809  39.1331924  64.0750957  13.5966707  38.5936699
  63.6270719  12.3029319  38.6537740  63.7385005  13.0055272  38.9825786
  60.2767083  10.6658563  40.0298038  60.3777446   9.8558916  40.3395165
  59.6808828  10.5715509  39.3997716  60.2039622  10.5323591  39.9824276
  60.1167822  15.5836152  41.4312894  60.7605278  16.0249316  41.8209052
  60.4424078  14.7789578  41.3443152  60.2599651  15.5301346  41.4758371
  53.4732127   6.6878849  39.6550371  53.2382312   5.8546501  39.5482640
  53.6117768   6.9683515  38.8411572  53.4587790   6.6062352  39.5192726
  60.8188402   8.5948127  36.8032755  61.1404243   9.1353334  36.1994063
  61.4660499   8.0244898  36.9355045  60.9614457   8.5907302  36.7339791
  63.0578046   6.9834566  36.8746933  63.4971681   6.3751667  37.3201706
  62.9082709   6.6041940  36.1032398  63.0999511   6.8373038  36.8266101
  60.5249689   5.5778578  44.0765759  61.1698691   5.0851021  43.7576707
  60.7651466   5.7203365  44.9031837  60.6560274   5.5256021  44.1515292
  63.0635780   8.4233484  43.7272652  63.3459023   7.6284890  43.5059407
  63.7921940   8.9014072  43.7477713  63.2125344   8.3768081  43.6975667
  59.4805423   5.8509759  34.1282906  58.8962638   6.3559790  34.5348770
  59.0775518   5.6252146  33.3879498  59.3344727   5.8918007  34.0787931
  55.0349452  11.5664520  40.9306577  54.5517030  12.2915009  40.9066161
  55.8472770  11.8640650  41.0416735  55.0840200  11.7166874  40.9433857
  61.1063606  10.3596701  43.5356392  60.5890548  10.0004116  42.9317700
  61.8037997   9.8358875  43.5462458  61.1329187  10.2294389  43.4486651
  64.7627198  10.8091515  49.4972565  64.8510544  10.6217655  50.3450775
  65.1916910  10.1628944  49.0977412  64.8389300  10.6854522  49.5644316
  62.3297658  10.0922675  48.4790227  61.7668492   9.6795284  49.0029888
  63.0918681  10.0175580  48.8983370  62.3592106  10.0200075  48.6183227
  57.8893649  12.0820696  41.0826857  58.5914228  11.5672685  41.1399614
  57.8091132  12.4094847  41.8873732  57.9817410  12.0534922  41.2099649
  57.2144425   8.2727048  40.5912465  58.0533324   8.5049981  40.6386227
  57.2456194   7.4031359  40.5219501  57.3426142   8.1783994  40.5877110
  57.8397128   8.6927923  44.8925771  58.3795352   8.5499054  45.5629143
  57.1567074   9.0924674  45.2609797  57.8189281   8.7307594  45.0460192
  70.3018184   8.1992201  40.8373198  69.8653415   8.2028943  41.5932170
  69.9681099   8.8797700  40.4052776  70.1880803   8.3004657  40.8854031
  64.8747257  10.2400534  52.1616348  65.6587674  10.3531381  52.5272091
  64.6743852   9.4141671  52.3575034  64.9613283  10.1347253  52.2450734
  53.2434273   4.9128214  45.0460192  52.9772688   4.0967330  45.2051183
  53.2572837   4.9581369  44.1755708  53.2058995   4.7985119  44.9413674
  65.0317650  12.1510636  45.8082804  64.2332896  11.9110136  46.0656673
  65.4803662  12.2025029  46.5549852  64.9792262  12.1233027  45.9567728
  64.3239337   8.2143252  32.0373759  64.7390486   7.8828276  31.3458254
  63.4931267   7.9812154  31.9093895  64.2627346   8.1314508  31.9164606
  53.6527686   5.6986993  42.3271937  53.4703259   5.6733879  41.4744229
  54.3877355   6.1685931  42.3660845  53.7341750   5.7648355  42.2069855
  49.0957430   1.4292387  39.1918822  49.1817682   1.0524255  39.9732352
  49.7233227   1.0552832  38.7138780  49.2013981   1.3177869  39.2364299
  59.9920746   7.9595783  39.3615879  60.6294693   7.7207531  39.9067672
  60.4175818   8.1632942  38.6269039  60.1496912   7.9546793  39.3333036
  54.6833388  10.1984120  43.2450182  54.7237534  10.4698971  42.4169962
  55.2427913  10.7226028  43.6607970  54.7716734  10.3159875  43.1842071
  62.3742218   8.4368206  41.0409665  62.4481226   8.2743378  41.8951515
  63.1911724   8.6258395  40.7970147  62.5058577   8.4404948  41.1307690
  56.1347975   8.7826069  38.0704108  55.3086092   9.0287806  37.9438387
  56.1959966   8.7038150  38.9366166  56.0222142   8.8071018  38.1793053
  60.9146804  11.4002949  35.7723138  61.2045102  11.0091930  35.0482365
  61.6450285  11.5819654  36.2128414  61.0653688  11.3696763  35.7305945
  61.5041549   6.2020695  46.8576269  61.0053243   6.9136463  46.9361157
  62.3141773   6.5221361  46.8194431  61.5497656   6.3547543  46.8632837
  58.8552719  13.3770331  38.8383288  58.6353015  13.0867686  39.6309955
  58.6347241  12.7185286  38.3101200  58.7900314  13.2370040  38.8772197
  57.7669667   5.4643648  41.1038990  57.4782915   4.8381119  41.6384717
  58.6353015   5.4063935  41.1703670  57.8529918   5.3631192  41.1929944
  61.0220675  14.7499721  37.6213980  61.6744733  14.2176164  37.8505006
  60.3246284  14.3968374  38.0081854  61.0151393  14.6189244  37.7126148
  57.9701940   7.1038899  37.0281355  58.7247908   7.4851938  37.2416817
  57.3772553   7.5550043  37.4828051  57.9938653   7.2267726  37.1264233
  59.2900167   8.2747460  42.4021470  58.7680920   8.4147752  43.0873335
  59.6774187   7.5158125  42.5923587  59.2703867   8.1832984  42.5322547
  65.4867171  10.0142920  36.3882039  65.2453847   9.2810780  35.9809104
  65.6668504  10.5629777  35.7348372  65.4774795   9.9865311  36.2312262
  56.7652639   4.5964290  47.0237969  57.2773736   4.8748543  46.3746729
  56.4788981   5.3353584  47.3900782  56.7987502   4.7466643  46.9827847
  68.7169918   7.7632109  42.9954097  68.5784278   8.4613155  43.5002839
  67.9369916   7.6080766  42.6390279  68.5813145   7.8432276  43.0180371
  59.8546652  11.9808240  45.4851326  60.0036216  11.4211156  44.8324730
  60.6346654  12.0600242  45.8683844  59.9920746  11.9093806  45.4448275
  62.3799953  12.1522883  46.7635816  62.3043624  11.4831694  47.3186605
  62.3089812  12.8540671  47.2776483  62.3580559  12.1567791  46.9212665
  63.0370199  10.6723882  37.5959422  63.8020091  10.4033526  37.2742087
  62.9348289  10.1873892  38.3129485  63.1351695  10.5613447  37.6539250
  65.5588860   7.7036066  29.5759372  66.3261845   7.7636191  29.1665223
  65.1120169   7.1316507  29.0915690  65.6062287   7.6272642  29.4437082
  68.4583390   9.3655854  34.0922282  68.5403227  10.1722840  33.7683733
  68.9433132   9.3851813  34.8163055  68.5420548   9.4876516  34.1509181
  61.7691587  15.5591203  45.2213817  62.2587517  14.8601992  45.0389482
  61.1975819  15.2615073  45.8089875  61.7576117  15.4117427  45.2814858
  57.5562338   4.5392741  38.1920332  57.7126958   4.4739544  39.0476325
  57.8962931   5.3141294  37.9799012  57.6295573   4.6441940  38.2874927
  67.9658590   8.1253272  54.1740608  68.7793456   7.8538421  54.3345740
  67.8053557   7.8260812  53.3700804  68.0628539   8.0408198  54.0786014
  62.2627933   9.3067977  34.3453724  62.3320753   8.4482515  34.4846724
  63.0416388   9.5239857  34.0172748  62.3880783   9.2120841  34.3170881
  66.6535420  11.7305678  38.5590217  66.2615212  11.4272393  37.8413083
  66.8088492  12.5674768  38.3695171  66.6189010  11.8089515  38.4246714
  66.8175095   8.2955667  38.4996248  66.4589750   8.4670310  39.2760280
  66.3313806   8.7568872  37.9424246  66.6933792   8.3894638  38.5321517
  67.9779834   9.1859563  49.4463448  68.6159555   8.6919758  49.1125904
  67.3353926   9.1136963  48.8615675  67.9774061   9.1018571  49.3105803
  68.0334091   9.8779371  46.0868805  68.8226469   9.5268436  46.2070887
  68.2077689  10.6915759  45.8245439  68.1754373   9.9465228  46.0656673
  59.6462417   8.4319217  47.0966289  59.5382772   8.4421279  47.9628347
  59.8558199   9.2573997  46.9071243  59.6612528   8.5560291  47.1970381
  57.6636209   5.6831859  44.5588227  57.0724142   6.3241357  44.5291242
  58.4257233   6.1069476  44.5319526  57.6884470   5.8407697  44.5503374
  67.4225725  11.1341171  41.9920251  67.2245414  11.6231985  41.2976463
  66.8013437  11.3382412  42.5704385  67.3013290  11.2357709  41.9743475
  54.9212071   7.3565956  45.7022143  54.3911996   6.6658395  45.7517118
  55.1937165   7.3476142  44.8734852  54.8836794   7.2533088  45.5869559
  65.9532162   7.9391659  34.4259826  66.6766361   8.4049772  34.2824399
  65.5132753   8.0065268  33.6757423  65.9947854   8.0175496  34.2944607
  50.2007914   4.0293721  43.0590492  50.0951363   3.9840565  42.1942576
  49.4508134   4.3747501  43.3404776  50.0743517   4.0734629  42.9727821
  63.6028231   8.0849106  46.6553943  63.0953322   8.6384953  47.0994574
  63.3054877   8.1457396  45.8372718  63.4833116   8.1755417  46.6002400
  55.3005264   3.3284097  36.4299231  55.8097493   3.9248605  36.8110537
  55.7739536   3.0610071  35.7475651  55.4448639   3.3769912  36.3853754
  66.2136012  12.0012364  34.5857887  65.4965321  11.8273226  34.1205124
  66.8642749  11.7664936  34.0533373  66.2037862  11.9408156  34.4387105
  62.8470717  13.0173664  43.5610950  62.6236371  12.2592494  43.9294977
  62.3580560  13.0471685  42.8391390  62.7414166  12.9095889  43.5087691
  64.9041706   7.1855396  51.1122884  64.8637561   6.5405073  50.5268040
  65.7165024   7.1292014  51.4248296  65.0184859   7.0814363  51.0719833
  64.8614468  12.3964208  41.7671651  64.4630751  12.5066478  40.9992472
  64.2465687  12.6046274  42.3498211  64.7113357  12.4437776  41.7402951
  62.2056356   6.4813112  34.1183911  61.3967679   6.1579786  34.0717221
  62.7131265   5.7746334  34.0512160  62.1606023   6.3294429  34.1014205
  52.8346633   3.9085305  39.8431275  51.9692153   3.8970996  39.7314047
  52.9345449   3.7215528  40.6902415  52.7220800   3.8791367  39.9520220
  58.4603643  13.6783204  43.4161381  58.7750202  14.4919593  43.4239163
  58.8697056  13.2933423  44.0843540  58.5671741  13.7411906  43.5165473
  65.4128163   9.0953251  40.9865193  65.8839341   9.8093513  41.1555178
  65.7488341   8.4952001  41.5225062  65.5323278   9.1124715  41.0897569
  67.5005147  10.7054564  53.1657265  67.6102113   9.9163125  53.5214012
  67.8296044  10.6160500  52.3631603  67.5657553  10.5760417  53.0999656
  66.0502109   8.8871185  47.7492885  65.5023055   8.2629069  47.4812951
  66.5115138   9.0765457  47.0336965  66.0369319   8.8230235  47.6043317
  55.8016663   7.6256313  43.0639989  56.4061521   7.5852147  42.4353810
  55.5943976   8.4727465  43.0944045  55.8605560   7.7444315  42.9756106
  65.6160435   9.8922258  44.2802227  66.4358809   9.7485224  44.5418522
  65.3354513  10.5168457  44.8218665  65.6957179   9.9632610  44.3990166
  51.0367946   6.6090930  42.9338912  50.9392224   5.7987202  43.2428969
  51.8196815   6.5882723  42.5485181  51.1384082   6.4858020  42.9225775
  75.2873771  16.6362760  41.9998033  74.4311666  16.7971259  42.0507150
  75.3341424  15.7654824  42.0203095  75.1672882  16.5313562  42.0104099
  69.6714910  26.1725478  37.7635265  68.9197810  25.7941017  37.5351310
  70.1200922  26.2043912  37.0154075  69.6264577  26.1211085  37.6192767
  78.5967487  22.9049286  51.6058490  79.3034254  22.4101317  51.7345424
  78.7855423  23.3458368  50.8761148  78.7295393  22.8967636  51.5167535
  75.1239870  26.5950848  33.1920812  74.7891239  27.2727769  32.7565034
  75.6366741  26.2056159  32.6037684  75.1505451  26.6375426  33.0407604
  74.6644161  28.5465116  39.1331924  75.0483541  29.1152015  38.5936699
  74.6003303  27.8214627  38.6537740  74.7117589  28.5240580  38.9825786
  78.1325592  18.6954804  44.6429685  78.6781552  19.3739891  44.7023655
  78.0742468  18.5542265  43.7831267  78.2041506  18.7746806  44.5241746
  71.2499666  26.1843870  40.0298038  71.3510029  25.3744224  40.3395165
  70.6541412  26.0900817  39.3997716  71.1772205  26.0508899  39.9824276
  79.9090660  20.1239411  35.5163413  79.7930186  20.8747098  35.9455551
  80.7046547  19.8663365  35.7659500  80.0095250  20.1974258  35.6167505
  71.0900406  31.1021460  41.4312894  71.7337862  31.5434624  41.8209052
  71.4156662  30.2974886  41.3443152  71.2332235  31.0486654  41.4758371
  64.4464711  22.2064157  39.6550371  64.2114895  21.3731809  39.5482640
  64.5850351  22.4868823  38.8411572  64.4320373  22.1247660  39.5192726
  66.7454798  14.3749888  42.5534679  66.1259830  13.7842535  42.3844694
  66.6438662  14.9661323  41.9199002  66.6392474  14.3753970  42.4339668
  71.7920986  24.1133434  36.8032755  72.1136827  24.6538642  36.1994063
  72.4393082  23.5430206  36.9355045  71.9347041  24.1092610  36.7339791
  73.8422694  16.1149429  36.8867142  74.5402859  16.2937557  37.3788605
  74.1575026  15.5919769  36.2637531  73.9918031  16.0643201  36.8669152
  66.4723931  17.9202169  44.7978248  66.3482628  18.5064615  45.4328067
  67.1242216  17.4262365  45.0990523  66.5497581  17.9340974  44.9364177
  74.0310629  22.5019874  36.8746933  74.4704265  21.8936975  37.3201706
  73.8815292  22.1227248  36.1032398  74.0732095  22.3558346  36.8266101
  71.4982272  21.0963886  44.0765759  72.1431275  20.6036329  43.7576707
  71.7384049  21.2388673  44.9031837  71.6292857  21.0441328  44.1515292
  74.0368364  23.9418792  43.7272652  74.3191606  23.1470198  43.5059407
  74.7654524  24.4199380  43.7477713  74.1857927  23.8953389  43.6975667
  72.0149557  11.4841826  40.9688417  71.6852887  11.9352970  40.2992115
  71.3394559  11.4057989  41.5161423  71.8659994  11.5392961  40.9511640
  77.6319966  20.8547056  33.8277703  77.5471261  21.7108022  33.9727272
  78.1204349  20.5791380  34.4959862  77.6908863  20.9404377  33.9479784
  78.5638399  17.4731850  35.3275438  78.0349870  17.6891483  35.9872744
  79.0863419  18.1667988  35.2476407  78.5626852  17.6074987  35.4131037
  70.4538007  21.3695067  34.1282906  69.8695222  21.8745098  34.5348770
  70.0508102  21.1437454  33.3879498  70.3077311  21.4103315  34.0787931
  66.0082035  27.0849828  40.9306577  65.5249614  27.8100317  40.9066161
  66.8205354  27.3825958  41.0416735  66.0572783  27.2352181  40.9433857
  72.0796189  25.8782008  43.5356392  71.5623131  25.5189423  42.9317700
  72.7770581  25.3544183  43.5462458  72.1061771  25.7479696  43.4486651
  75.7359781  26.3276823  49.4972565  75.8243127  26.1402963  50.3450775
  76.1649494  25.6814252  49.0977412  75.8121884  26.2039830  49.5644316
  73.3030241  25.6107983  48.4790227  72.7401076  25.1980592  49.0029888
  74.0651265  25.5360888  48.8983370  73.3324690  25.5385383  48.6183227
  74.9115221  17.6160719  32.6051826  75.1511225  17.8238702  31.7927170
  75.2331062  16.8118227  32.7140771  74.9952379  17.5274820  32.5012379
  70.2205511   9.5454114  36.4511364  70.9751480   9.9132432  36.2128415
  70.0433046   9.9193669  37.2190544  70.3059990   9.6552302  36.5296253
  68.8626233  27.6006004  41.0826857  69.5646812  27.0857993  41.1399614
  68.7823716  27.9280155  41.8873732  68.9549993  27.5720230  41.2099649
  69.9105139  17.8381591  50.2107272  70.0825643  17.7287485  51.0592554
  70.4474497  18.4835996  49.9738465  70.0150143  17.9173592  50.3012369
  68.5762576  11.9524433  33.1489477  68.3938149  12.1696314  32.3230470
  69.4388189  12.0663446  33.2048092  68.6767166  12.0014331  33.0343964
  68.1877008  23.7912356  40.5912465  69.0265908  24.0235288  40.6386227
  68.2188777  22.9216667  40.5219501  68.3158726  23.6969302  40.5877110
  68.8129711  24.2113231  44.8925771  69.3527936  24.0684362  45.5629143
  68.1299657  24.6109982  45.2609797  68.7921865  24.2492902  45.0460192
  78.2370596  19.8904231  40.0870795  78.9928111  20.3235746  40.1259704
  78.3432920  19.2409001  40.6605431  78.3640767  19.8581715  40.1768821
  81.2750767  23.7177509  40.8373198  80.8385999  23.7214251  41.5932170
  80.9413683  24.3983008  40.4052776  81.1613387  23.8189965  40.8854031
  75.8479841  25.7585842  52.1616348  76.6320257  25.8716689  52.5272091
  75.6476435  24.9326979  52.3575034  75.9345866  25.6532561  52.2450734
  64.2166856  20.4313522  45.0460192  63.9505271  19.6152638  45.2051183
  64.2305420  20.4766677  44.1755708  64.1791579  20.3170426  44.9413674
  68.1224603  15.2298606  31.6611950  67.4082780  14.9436786  32.0734383
  68.6068572  15.5695232  32.3018338  68.0883966  15.2380256  31.8167585
  68.9665463  13.9691900  47.6927200  68.2737259  13.4988880  47.9387932
  69.5825790  13.7430204  48.2668907  68.9549993  13.8659032  47.8136353
  76.0050234  27.6695944  45.8082804  75.2065480  27.4295444  46.0656673
  76.4536246  27.7210337  46.5549852  75.9524845  27.6418335  45.9567728
  75.2971921  23.7328560  32.0373759  75.7123070  23.4013584  31.3458254
  74.4663851  23.4997462  31.9093895  75.2359930  23.6499816  31.9164606
  64.6260270  21.2172301  42.3271937  64.4435843  21.1919187  41.4744229
  65.3609939  21.6871239  42.3660845  64.7074334  21.2833663  42.2069855
  80.6959944  21.4523811  39.4704824  80.9315533  21.5969010  38.6431675
  80.8449508  22.2166219  39.8636338  80.7525747  21.5862865  39.4068428
  67.6906022  17.9357304  48.8354045  68.4145994  17.9210335  49.3218940
  67.7922158  18.6452659  48.3376013  67.8124231  18.0382007  48.8332832
  75.0650971  21.4156389  53.7002992  74.2723952  21.7299900  53.8855612
  75.1799898  21.6307857  52.8623777  74.9646381  21.4940225  53.6041327
  77.7382290  18.1390380  37.9898008  77.8329144  18.8779674  38.4437634
  77.1141133  17.7107855  38.4232573  77.6591320  18.1851700  38.1206156
  75.9934764  21.3176592  48.6388289  76.5673625  20.6803837  48.7936853
  75.9149567  21.3180675  47.7697947  76.0667999  21.2241704  48.5334700
  64.5931180  18.0965802  42.4771003  65.1704683  17.9602253  43.1163248
  63.8945242  17.6401586  42.7316588  64.5752202  18.0088068  42.6093293
  77.9905311  19.9839119  31.2234960  77.9085474  20.0541307  32.0889947
  78.6285032  20.5468863  31.0318701  78.0725149  20.0778091  31.3224910
  71.3498482  19.7499857  40.6909486  71.0917727  18.9171592  40.6640786
  71.4046965  19.9757470  39.8501987  71.3198260  19.6597629  40.5629623
  76.4299533  11.8528308  40.7913579  75.7255859  11.3637494  40.9497498
  76.4784507  11.8650783  39.9202023  76.3329584  11.7817956  40.6852919
  70.3233195  17.3037620  41.1774381  69.7482786  17.4629788  41.8138342
  69.9468871  16.6673029  40.7142832  70.1836007  17.2335433  41.2028940
  73.9906483  15.7760969  46.0366760  73.6020916  15.3515187  45.3818951
  73.3261182  16.0243119  46.5443786  73.8353411  15.7499690  46.0154627
  60.0690013  16.9477695  39.1918822  60.1550265  16.5709563  39.9732352
  60.6965811  16.5738140  38.7138780  60.1746564  16.8363177  39.2364299
  75.0945421  20.0059574  34.2343567  75.9086060  20.2974467  34.1226338
  75.0304563  19.3519436  33.6601859  75.2048160  19.9524769  34.1332404
  81.3154912  22.6885570  48.6473142  81.0793549  21.8573635  48.5285203
  81.9598141  22.6371177  49.2327986  81.3749582  22.5583258  48.7159036
  70.9653330  23.4781091  39.3615879  71.6027277  23.2392839  39.9067672
  71.3908401  23.6818250  38.6269039  71.1229496  23.4732101  39.3333036
  65.6565972  25.7169428  43.2450182  65.6970117  25.9884279  42.4169962
  66.2160496  26.2411336  43.6607970  65.7449318  25.8345183  43.1842071
  71.6056145  18.6983381  33.6990768  71.9901297  18.4791088  34.4507313
  71.3567765  19.5246326  33.8291844  71.6258217  18.7881527  33.8291844
  71.7724685  11.9789796  53.4153352  71.4578126  12.7489359  53.1522915
  71.4514618  11.4160052  52.8305579  71.6783604  12.0100065  53.2894702
  82.3391332  22.4730019  44.7101437  82.0337149  23.2058075  45.0714752
  81.6197548  22.0667948  44.4294223  82.1878674  22.5211752  44.7214574
  73.3474802  23.9553514  41.0409665  73.4213810  23.7928686  41.8951515
  74.1644308  24.1443703  40.7970147  73.4791160  23.9590256  41.1307690
  67.1080558  24.3011377  38.0704108  66.2818676  24.5473114  37.9438387
  67.1692550  24.2223458  38.9366166  66.9954725  24.3256326  38.1793053
  69.3256582  10.3680318  39.0299549  68.4579008  10.4402917  39.0957158
  69.6131786  11.1702397  39.2187524  69.2396330  10.4974465  39.0674315
  71.8879387  26.9188257  35.7723138  72.1777686  26.5277238  35.0482365
  72.6182868  27.1004962  36.2128414  72.0386272  26.8882071  35.7305945
  72.4774133  21.7206003  46.8576269  71.9785826  22.4321771  46.9361157
  73.2874357  22.0406669  46.8194431  72.5230239  21.8732851  46.8632837
  69.8285303  28.8955639  38.8383288  69.6085598  28.6052994  39.6309955
  69.6079825  28.2370594  38.3101200  69.7632897  28.7555348  38.8772197
  68.7402250  20.9828956  41.1038990  68.4515499  20.3566427  41.6384717
  69.6085598  20.9249243  41.1703670  68.8262502  20.8816500  41.1929944
  79.5280148  16.1263739  41.4220972  79.1844914  15.4054074  41.7728221
  79.6273190  15.9177590  40.5799330  79.4922191  15.9887942  41.3492652
  71.9953259  30.2685029  37.6213980  72.6477317  29.7361472  37.8505006
  71.2978867  29.9153682  38.0081854  71.9883977  30.1374552  37.7126148
  68.9434523  22.6224207  37.0281355  69.6980491  23.0037246  37.2416817
  68.3505136  23.0735351  37.4828051  68.9671237  22.7453034  37.1264233
  79.9893177  22.5889443  36.9644960  80.5551210  23.2482653  36.8803503
  79.3421080  22.9339141  37.4361362  79.9771933  22.7371385  37.0217716
  71.4041191  14.5787047  52.1538567  70.5940966  14.8844827  52.0428409
  71.8815877  15.2992630  52.2691151  71.3544669  14.7301648  52.1545638
  70.2632750  23.7932768  42.4021470  69.7413504  23.9333060  43.0873335
  70.6506770  23.0343433  42.5923587  70.2436451  23.7018292  42.5322547
  67.2523934  13.8438577  36.4716425  66.9648730  13.4739847  35.7348372
  67.9394402  14.3133432  36.2100130  67.3112831  13.8585546  36.3231501
  76.4599755  25.5328227  36.3882039  76.2186431  24.7996088  35.9809104
  76.6401088  26.0815084  35.7348372  76.4507379  25.5050619  36.2312262
  71.6899076  20.8236787  37.8002961  71.4941858  21.4311522  37.2063264
  71.9133421  20.1304731  37.3194635  71.6933717  20.8114313  37.6419042
  70.0877606  17.7091525  37.9183829  70.8100258  17.8732683  37.4587635
  69.6085598  18.4301190  37.8123169  70.1241336  17.8389755  37.8349443
  78.0471113  14.0455324  43.2980514  77.2082214  14.0716603  43.0618778
  78.1175481  14.6926059  43.8785861  77.9339507  14.1451450  43.3489631
  67.7385222  20.1149598  47.0237969  68.2506319  20.3933851  46.3746729
  67.4521565  20.8538892  47.3900782  67.7720086  20.2651951  46.9827847
  81.9228637  19.2523311  40.5841756  81.8362612  19.4078737  41.4376535
  81.4679117  19.8961386  40.2101161  81.8431894  19.3699066  40.6548863
  64.8252129  14.6219789  37.3201706  64.9268265  15.4245951  37.6482681
  65.6208015  14.4207125  37.0224786  64.9580034  14.7105688  37.3237061
  71.2568948  12.2075986  47.0839011  71.0652145  12.2231121  47.9338434
  72.1067544  12.4039660  47.0605666  71.3544670  12.2390337  47.2062306
  65.6415861  14.7366968  45.0622827  65.5001353  13.8850908  45.1867335
  65.9256424  14.7795628  44.2385033  65.6623707  14.6166718  44.9590451
  75.7954453  16.5734058  39.2067316  75.5489167  16.4929809  40.0404105
  76.1239576  15.7887526  39.0129843  75.8075697  16.4460323  39.3014839
  79.6902502  23.2817417  42.9954097  79.5516861  23.9798463  43.5002839
  78.9102500  23.1266074  42.6390279  79.5545729  23.3617584  43.0180371
  78.0280587  19.5813793  49.2476479  78.0228626  18.7093609  49.2518905
  78.7341581  19.7801962  48.7745934  78.1325591  19.4817667  49.1783514
  71.7551480  19.3090776  48.6190299  71.8994856  19.8891985  47.9833409
  72.1027129  19.6867073  49.3240153  71.8278942  19.4511480  48.6289294
  73.9271398  18.5080945  46.4015430  73.1794712  18.7011959  45.9963708
  74.0812923  17.6826164  46.1639552  73.8393825  18.4146056  46.3060836
  70.8279235  27.4993548  45.4851326  70.9768799  26.9396464  44.8324730
  71.6079238  27.5785550  45.8683844  70.9653329  27.4279114  45.4448275
  81.1855875  22.6395671  33.7570596  80.8062684  21.8532809  33.7499885
  80.5222120  23.1882528  33.6142240  81.0314350  22.6040495  33.7351393
  73.3532536  27.6708191  46.7635816  73.2776207  27.0017002  47.3186605
  73.2822395  28.3725979  47.2776483  73.3313143  27.6753098  46.9212665
  74.1673175  12.4031496  47.2910834  74.6245789  13.1355470  47.4183626
  74.2429504  11.9797961  48.0498090  74.2464145  12.4488734  47.4211911
  66.4106166  12.6497315  48.3800278  65.8748356  12.0377673  48.6961045
  66.4723931  13.2245451  49.0333944  66.3401799  12.6444243  48.5235705
  74.0102783  26.1909190  37.5959422  74.7752674  25.9218834  37.2742087
  73.9080873  25.7059200  38.3129485  74.1084278  26.0798755  37.6539250
  72.0455553  14.3933599  44.1352658  71.2551628  14.2125060  44.4569994
  72.4416176  13.6160552  44.1182953  71.9872429  14.2521060  44.1805206
  76.5321444  23.2221374  29.5759372  77.2994429  23.2821499  29.1665223
  76.0852753  22.6501815  29.0915690  76.5794871  23.1457949  29.4437082
  77.4299239  22.0276030  41.8612104  76.7544241  21.7961262  42.3625491
  77.4391615  21.4197213  41.2354209  77.3317744  21.9034955  41.8428256
  74.5593383  16.8693859  48.6176157  74.4952524  17.7303815  48.4896294
  74.6990571  16.5525852  47.8171708  74.5708853  16.9494025  48.4804370
  79.4315974  24.8841162  34.0922282  79.5135811  25.6908148  33.7683733
  79.9165716  24.9037121  34.8163055  79.5153132  25.0061824  34.1509181
  73.2412477  19.5625998  42.7592360  72.8174726  19.7630497  42.0231378
  73.0657332  18.7154846  42.8716660  73.1523358  19.4674779  42.6666050
  72.7424170  31.0776511  45.2213817  73.2320101  30.3787300  45.0389482
  72.1708403  30.7800381  45.8089875  72.7308700  30.9302735  45.2814858
  68.5294922  20.0578049  38.1920332  68.6859541  19.9924852  39.0476325
  68.8695515  20.8326602  37.9799012  68.6028157  20.1627247  38.2874927
  75.0674067  19.4335933  37.0613696  75.6089612  18.9306314  37.5252316
  75.3820626  19.3801128  36.2503181  75.1938464  19.3515354  37.0097508
  78.9391174  23.6438580  54.1740608  79.7526039  23.3723729  54.3345740
  78.7786140  23.3446120  53.3700804  79.0361122  23.5593506  54.0786014
  73.2360516  24.8253284  34.3453724  73.3053337  23.9667823  34.4846724
  74.0148971  25.0425165  34.0172748  73.3613366  24.7306148  34.3170881
  76.2163336  14.3272237  47.1135996  76.4305305  13.6883152  46.5599350
  75.5997235  14.7718061  46.6843858  76.1568665  14.2982381  46.9686427
  77.6268004  27.2490986  38.5590217  77.2347796  26.9457701  37.8413083
  77.7821076  28.0860076  38.3695171  77.5921594  27.3274822  38.4246714
  65.1029183  17.2413000  38.5081100  65.4828148  17.6597545  37.8441367
  64.5284548  17.8226456  38.8149943  65.0740508  17.3890859  38.4557841
  78.3802424  15.9361303  48.0519303  77.5679106  15.6287193  48.1332476
  78.8392359  15.4560303  48.6162015  78.3282809  15.8197795  48.1473897
  77.7907679  23.8140975  38.4996248  77.4322333  23.9855617  39.2760280
  77.3046389  24.2754180  37.9424246  77.6666375  23.9079946  38.5321517
  72.5796044  19.4940140  31.0396482  72.8688569  20.2705022  31.3140056
  72.6667843  18.9828871  31.7410981  72.6350300  19.5332058  31.1838980
  75.4755931  17.3421374  52.8348006  75.9455563  17.9663490  53.2215880
  75.5217812  16.6738350  53.3941220  75.5523807  17.3356054  52.9748077
  78.9512418  24.7044871  49.4463448  79.5892138  24.2105066  49.1125904
  78.3086510  24.6322271  48.8615675  78.9506644  24.6203879  49.3105803
  80.6769418  16.5534016  44.0129364  80.2497026  16.4660365  43.2577464
  80.0395471  16.6611792  44.5984208  80.5199025  16.5566676  43.9874806
  74.1690495  11.6609542  49.9526333  74.9963924  11.3894691  50.0084948
  74.1898341  12.4570383  50.3090152  74.2943345  11.7389296  50.0141516
  79.0066675  25.3964679  46.0868805  79.7959053  25.0453744  46.2070887
  79.1810272  26.2101067  45.8245439  79.1486956  25.4650536  46.0656673
  68.7459985  18.8073405  43.1396594  67.9047992  18.7077279  43.3475488
  68.9549993  19.5768885  43.4910915  68.6524678  18.9065448  43.2223909
  66.2235552  16.4292941  40.9681345  65.8292250  16.5035953  40.1931454
  65.6675669  16.8150888  41.5189706  66.0838364  16.4974716  40.9349004
  72.5576650  16.7354804  42.3894192  72.2539787  16.1810792  42.9904599
  71.8556071  16.9147014  41.9022226  72.4092860  16.6799586  42.4063897
  71.6142747  14.0455324  36.9538893  71.8902481  13.3274236  36.5416461
  72.2141416  14.6440243  36.7459999  71.7436012  14.0275694  36.8619655
  70.6195001  23.9504524  47.0966289  70.5115356  23.9606587  47.9628347
  70.8290782  24.7759305  46.9071243  70.6345112  24.0745599  47.1970381
  75.1153267  11.7168841  35.2285488  75.5697014  11.8879401  35.9533333
  75.5893313  11.1036952  34.8283264  75.2521588  11.6519726  35.2759250
  68.6368793  21.2017167  44.5588227  68.0456726  21.8426665  44.5291242
  69.3989816  21.6254784  44.5319526  68.6617053  21.3593005  44.5503374
  69.0329416  12.3619165  45.2256245  69.4930897  12.4358094  45.9631368
  69.0785522  13.1600419  44.8756066  69.1079971  12.4913312  45.2829001
  70.6812765  13.0285859  49.7928272  70.2898330  12.3819207  50.2284049
  70.8498628  13.6197295  50.4122527  70.6483676  13.0200127  49.9490978
  78.3958309  26.6526478  41.9920251  78.1977998  27.1417293  41.2976463
  77.7746020  26.8567720  42.5704385  78.2745874  26.7543017  41.9743475
  72.4566287  18.4211375  36.3330496  73.2008332  18.8085652  36.5713446
  72.6026984  17.5768801  36.4970983  72.5876873  18.3541848  36.3924465
  75.4444163  13.9936849  42.2324415  74.9704118  13.4678611  42.7429726
  75.8162299  13.4466321  41.6639277  75.4294052  13.8352845  42.2239562
  65.8217193  15.9908355  47.6007961  66.6842806  15.8904064  47.5145291
  65.4908976  15.4103065  47.0393533  65.9002390  15.8899982  47.5053367
  81.7080894  19.0539224  43.6431196  81.4679117  18.2145639  43.6473622
  82.1872901  19.1339391  44.3671969  81.7433078  18.9420624  43.7505998
  77.3727663  14.8873403  35.2950169  76.8450682  14.9702147  34.6055878
  77.8323371  15.6291275  35.2914813  77.3629513  15.0094066  35.1924864
  80.3132111  20.2190631  47.5265500  81.0366310  19.7663157  47.3476520
  80.0482073  20.4995296  46.7437828  80.3813384  20.1941599  47.3844215
  69.1818979  14.8150804  44.2618379  68.5572050  14.8269196  43.6544332
  68.8464574  15.2910979  44.9109619  69.0404471  14.8869321  44.2674947
  69.3660728  13.1575923  30.3191064  69.0173532  13.8095648  30.7822613
  68.8857174  13.1433036  29.5914935  69.2430972  13.2518976  30.2802155
  65.8944655  22.8751264  45.7022143  65.3644579  22.1843703  45.7517118
  66.1669748  22.8661450  44.8734852  65.8569377  22.7718396  45.5869559
  76.9264745  23.4576967  34.4259826  77.6498944  23.9235080  34.2824399
  76.4865336  23.5250576  33.6757423  76.9680438  23.5360803  34.2944607
  76.0950900  20.3174509  45.6760515  75.4807894  19.7732559  45.9709150
  76.6118185  19.8038745  45.1966331  76.0806563  20.1610918  45.6484743
  75.3347198  21.3878779  43.4104813  74.9074806  20.7628498  42.9770249
  75.3272142  21.1053701  44.2363821  75.2706339  21.2531560  43.4684641
  68.4509725  16.4243952  46.4793247  68.6103211  15.6687276  46.8844969
  68.2702618  16.9734892  47.1333985  68.4475084  16.3937766  46.6355953
  73.6632907  12.2647534  43.6247347  73.6875395  11.7307646  42.9360127
  73.9144381  11.7564842  44.2872938  73.7042826  12.1108438  43.6211992
  61.1740497  19.5479029  43.0590492  61.0683946  19.5025873  42.1942576
  60.4240717  19.8932809  43.3404776  61.0476100  19.5919937  42.9727821
  69.9434230  10.9918352  43.0053092  69.9832601  11.4927558  43.7187799
  69.1183894  11.0828745  42.7359015  69.8273756  11.0800168  43.0703630
  72.1263842  20.5579092  51.1073386  71.2759473  20.6950806  51.2431031
  72.2891970  19.8242870  51.5521088  72.0247706  20.4693193  51.1928986
  71.3648593  17.5078862  45.3026991  70.5340523  17.6752680  45.0962239
  71.3100110  17.1314812  46.0875876  71.2338008  17.4768593  45.3875519
  69.1732376  10.9987755  50.9383401  69.7985080  10.4549887  51.2112834
  68.7182856  10.5182672  50.3691192  69.1980637  10.8477236  50.8944995
  69.7384637  15.7834453  35.8317108  69.8787598  16.2806917  36.5345750
  70.2367170  15.0820748  35.9731322  69.8325718  15.7536432  35.9568687
  69.7684859  16.6501564  33.1609685  70.4029939  17.2461989  33.0959147
  69.8510470  16.3505022  33.9755555  69.8741410  16.6942472  33.2712772
  71.3463842  12.5815540  33.1355127  71.6679683  12.1018622  32.4814390
  71.6090786  13.3915186  32.9445939  71.4329867  12.6305438  33.0110619
  74.5760815  23.6034414  46.6553943  74.0685906  24.1570261  47.0994574
  74.2787461  23.6642704  45.8372718  74.4565700  23.6940725  46.6002400
  76.7422997  11.9687734  45.4978606  77.1678069  11.5160260  44.8862133
  76.1279990  11.4147804  45.7743394  76.7151642  11.8201710  45.4483632
  66.2737847  18.8469405  36.4299231  66.7830076  19.4433912  36.8110537
  66.7472119  18.5795379  35.7475651  66.4181223  18.8955220  36.3853754
  77.1868595  27.5197672  34.5857887  76.4697905  27.3458534  34.1205124
  77.8375333  27.2850244  34.0533373  77.1770446  27.4593464  34.4387105
  79.7716566  16.3962260  38.3299192  79.1007756  16.9391962  38.2012258
  80.4656317  16.8657116  38.0880887  79.7745434  16.5460531  38.2754720
  73.8203300  28.5358972  43.5610950  73.5968955  27.7777801  43.9294977
  73.3313143  28.5656993  42.8391390  73.7146749  28.4281197  43.5087691
  79.9344694  12.8518144  41.2389565  80.2872304  12.4247867  41.9135364
  79.0759495  12.7668987  41.3690642  79.8594138  12.7762884  41.3584576
  68.6328379  15.4825664  39.2972412  67.9140368  15.8989796  39.5645275
  69.0040741  16.0479902  38.7464050  68.5820311  15.6274945  39.2555219
  77.9327960  16.1153512  45.1874407  77.9125887  15.9336808  46.0409186
  77.9807160  16.9865531  45.1633991  77.9362601  16.2170051  45.3097702
  75.8774289  22.7040704  51.1122884  75.8370144  22.0590381  50.5268040
  76.6897608  22.6477322  51.4248296  75.9917443  22.5999671  51.0719833
  72.4681757  28.7559430  41.0148035  72.0542156  28.0933561  40.6251877
  73.1529131  28.9037289  40.4943729  72.5080129  28.6800088  40.8804532
  75.8347051  27.9149516  41.7671651  75.4363334  28.0251786  40.9992472
  75.2198271  28.1231582  42.3498211  75.6845940  27.9623084  41.7402951
  74.4074953  14.5223663  34.6345791  73.8139792  14.8440660  34.0830358
  74.4450231  13.6764759  34.4266897  74.3249342  14.4447992  34.5228562
  77.2832770  14.4803168  38.0647541  77.0546463  14.5035869  37.2225900
  77.5430846  13.6560635  38.1842552  77.2878958  14.3619248  37.9572739
  71.5651998  16.3337641  47.6672642  71.0530901  15.7258824  48.0257673
  71.3931494  17.0494234  48.1346617  71.4641635  16.3500940  47.7888865
  66.4117713  14.7775216  50.3175003  66.2420303  15.4376591  49.7723210
  65.9683663  14.9881778  51.0387493  66.3217046  14.9061198  50.3436633
  70.3377532  13.0179714  39.3601737  70.8134899  13.3796794  38.7251918
  69.8366132  13.6736182  39.6401880  70.3342891  13.1673903  39.3078478
  75.4421069  14.2561886  50.1074897  75.9992499  14.0275695  49.4753363
  75.1182134  15.0167551  49.8310110  75.4767479  14.3345722  49.9731394
  63.3119777  17.6822082  45.5763493  62.7646497  17.0122727  45.6944362
  64.1012156  17.3151930  45.6406961  63.3471961  17.5287068  45.6032194
  73.1604186  17.3429539  51.0726904  73.9115513  17.6581216  51.3866458
  73.3526762  17.1408710  50.2460826  73.2995600  17.3596921  50.9970300
  72.3804185  15.1620914  32.7275121  72.7603150  15.1800543  31.9426236
  71.6396781  15.6074903  32.6065968  72.3273023  15.2302689  32.5938689
  80.0089476  13.4703105  38.3150700  80.0083702  13.3151762  39.1734976
  79.8045656  14.3166092  38.2592085  79.9789254  13.5723726  38.4338639
  62.0706747  16.8942890  42.7309516  61.8928508  16.4419499  43.4564432
  61.7825769  17.6969051  42.9147994  62.0019700  16.9465447  42.8653019
  77.7330328  18.1500607  41.9686907  78.2283993  17.4323602  41.9290927
  76.9230104  17.8471405  41.8541394  77.6874221  17.9998253  41.9460632
  73.1788939  21.9998420  34.1183911  72.3700262  21.6765094  34.0717221
  73.6863848  21.2931642  34.0512160  73.1338606  21.8479737  34.1014205
  63.8079217  19.4270613  39.8431275  62.9424736  19.4156304  39.7314047
  63.9078033  19.2400836  40.6902415  63.6953384  19.3976675  39.9520220
  79.7982147  20.9004295  44.6564035  80.2237218  20.3778716  44.1034460
  79.4339067  21.4985132  44.1352658  79.8068749  20.9114522  44.4973045
  69.4336227  29.1968512  43.4161381  69.7482786  30.0104900  43.4239163
  69.8429640  28.8118731  44.0843540  69.5404325  29.2597214  43.5165473
  76.3860746  24.6138559  40.9865193  76.8571924  25.3278821  41.1555178
  76.7220925  24.0137309  41.5225062  76.5055861  24.6310023  41.0897569
  78.4737731  26.2239872  53.1657265  78.5834696  25.4348433  53.5214012
  78.8028627  26.1345808  52.3631603  78.5390137  26.0945725  53.0999656
  77.0234693  24.4056493  47.7492885  76.4755639  23.7814377  47.4812951
  77.4847721  24.5950765  47.0336965  77.0101902  24.3415543  47.6043317
  79.8328557  12.4741847  45.1344078  79.2491546  12.9751054  44.7221645
  80.1532851  11.9671404  44.5008401  79.7941732  12.4733682  44.9802585
  72.3723356  11.3882442  35.4102753  73.1939050  11.5580755  35.1684447
  71.9093007  11.5429703  34.6869050  72.4254518  11.4364175  35.2674397
  70.9618688   9.3825204  46.1901181  71.5063101   9.0416331  46.7805523
  71.0155624  10.2410666  46.3322466  71.0507807   9.4580464  46.2983055
  66.7749247  23.1441620  43.0639989  67.3794104  23.1037455  42.4353810
  66.5676559  23.9912772  43.0944045  66.8338144  23.2629623  42.9756106
  76.5893019  25.4107566  44.2802227  77.4091393  25.2670532  44.5418522
  76.3087097  26.0353764  44.8218665  76.6689762  25.4817918  44.3990166
  62.0100529  22.1276238  42.9338912  61.9124807  21.3172509  43.2428969
  62.7929399  22.1068031  42.5485181  62.1116666  22.0043328  42.9225775
  80.6447494  41.6910786  37.7635265  79.8930393  41.3126325  37.5351310
  81.0933506  41.7229220  37.0154075  80.5997161  41.6396393  37.6192767
  82.2232250  41.7029178  40.0298038  82.3242613  40.8929532  40.3395165
  81.6273995  41.6086125  39.3997716  82.1504789  41.5694206  39.9824276
  75.4197294  37.7249465  39.6550371  75.1847479  36.8917117  39.5482640
  75.5582935  38.0054131  38.8411572  75.4052957  37.6432968  39.5192726
  77.7187382  29.8935196  42.5534679  77.0992413  29.3027843  42.3844694
  77.6171245  30.4846631  41.9199002  77.6125057  29.8939278  42.4339668
  77.4456515  33.4387477  44.7978248  77.3215212  34.0249923  45.4328067
  78.0974799  32.9447673  45.0990523  77.5230164  33.4526282  44.9364177
  81.4270590  36.8880375  34.1282906  80.8427806  37.3930406  34.5348770
  81.0240686  36.6622761  33.3879498  81.2809894  36.9288623  34.0787931
  76.9814619  42.6035136  40.9306577  76.4982197  43.3285625  40.9066161
  77.7937937  42.9011266  41.0416735  77.0305367  42.7537489  40.9433857
  81.1938095  25.0639422  36.4511364  81.9484063  25.4317739  36.2128415
  81.0165630  25.4378977  37.2190544  81.2792573  25.1737610  36.5296253
  79.8358816  43.1191312  41.0826857  80.5379396  42.6043301  41.1399614
  79.7556299  43.4465463  41.8873732  79.9282577  43.0905538  41.2099649
  80.8837723  33.3566899  50.2107272  81.0558227  33.2472793  51.0592554
  81.4207080  34.0021304  49.9738465  80.9882727  33.4358900  50.3012369
  79.5495160  27.4709741  33.1489477  79.3670733  27.6881622  32.3230470
  80.4120773  27.5848754  33.2048092  79.6499749  27.5199639  33.0343964
  79.1609592  39.3097664  40.5912465  79.9998491  39.5420596  40.6386227
  79.1921361  38.4401975  40.5219501  79.2891309  39.2154610  40.5877110
  79.7862295  39.7298539  44.8925771  80.3260520  39.5869670  45.5629143
  79.1032241  40.1295290  45.2609797  79.7654449  39.7678210  45.0460192
  75.1899440  35.9498830  45.0460192  74.9237855  35.1337946  45.2051183
  75.2038004  35.9951985  44.1755708  75.1524162  35.8355734  44.9413674
  79.0957187  30.7483914  31.6611950  78.3815364  30.4622094  32.0734383
  79.5801155  31.0880540  32.3018338  79.0616550  30.7565564  31.8167585
  79.9398046  29.4877208  47.6927200  79.2469843  29.0174188  47.9387932
  80.5558373  29.2615512  48.2668907  79.9282576  29.3844340  47.8136353
  75.5992853  36.7357609  42.3271937  75.4168427  36.7104495  41.4744229
  76.3342522  37.2056547  42.3660845  75.6806917  36.8018971  42.2069855
  78.6638605  33.4542612  48.8354045  79.3878577  33.4395643  49.3218940
  78.7654742  34.1637967  48.3376013  78.7856814  33.5567315  48.8332832
  75.5663764  33.6151110  42.4771003  76.1437266  33.4787560  43.1163248
  74.8677825  33.1586894  42.7316588  75.5484785  33.5273376  42.6093293
  82.3231066  35.2685165  40.6909486  82.0650310  34.4356900  40.6640786
  82.3779549  35.4942778  39.8501987  82.2930844  35.1782937  40.5629623
  81.2965778  32.8222928  41.1774381  80.7215369  32.9815096  41.8138342
  80.9201454  32.1858337  40.7142832  81.1568590  32.7520741  41.2028940
  76.6298556  41.2354736  43.2450182  76.6702701  41.5069587  42.4169962
  77.1893080  41.7596644  43.6607970  76.7181902  41.3530491  43.1842071
  78.0813142  39.8196685  38.0704108  77.2551260  40.0658422  37.9438387
  78.1425133  39.7408765  38.9366166  77.9687309  39.8441634  38.1793053
  80.2989166  25.8865626  39.0299549  79.4311591  25.9588225  39.0957158
  80.5864370  26.6887705  39.2187524  80.2128914  26.0159773  39.0674315
  80.8017887  44.4140947  38.8383288  80.5818182  44.1238302  39.6309955
  80.5812409  43.7555902  38.3101200  80.7365481  44.2740656  38.8772197
  79.7134834  36.5014264  41.1038990  79.4248082  35.8751735  41.6384717
  80.5818182  36.4434551  41.1703670  79.7995086  36.4001808  41.1929944
  79.9167107  38.1409515  37.0281355  80.6713075  38.5222554  37.2416817
  79.3237720  38.5920658  37.4828051  79.9403821  38.2638342  37.1264233
  81.2365334  39.3118076  42.4021470  80.7146087  39.4518368  43.0873335
  81.6239354  38.5528740  42.5923587  81.2169035  39.2203600  42.5322547
  78.2256518  29.3623885  36.4716425  77.9381313  28.9925155  35.7348372
  78.9126986  29.8318740  36.2100130  78.2845415  29.3770854  36.3231501
  81.0610189  33.2276833  37.9183829  81.7832841  33.3917991  37.4587635
  80.5818182  33.9486498  37.8123169  81.0973920  33.3575063  37.8349443
  78.7117806  35.6334905  47.0237969  79.2238903  35.9119159  46.3746729
  78.4254149  36.3724200  47.3900782  78.7452669  35.7837259  46.9827847
  75.7984712  30.1405097  37.3201706  75.9000849  30.9431259  37.6482681
  76.5940599  29.9392433  37.0224786  75.9312618  30.2290996  37.3237061
  76.6148444  30.2552276  45.0622827  76.4733936  29.4036216  45.1867335
  76.8989008  30.2980936  44.2385033  76.6356290  30.1352026  44.9590451
  77.3838750  28.1682623  48.3800278  76.8480939  27.5562981  48.6961045
  77.4456514  28.7430759  49.0333944  77.3134382  28.1629551  48.5235705
  79.5027506  35.5763357  38.1920332  79.6592125  35.5110160  39.0476325
  79.8428099  36.3511910  37.9799012  79.5760740  35.6812555  38.2874927
  76.0761767  32.7598308  38.5081100  76.4560732  33.1782853  37.8441367
  75.5017132  33.3411763  38.8149943  76.0473092  32.9076167  38.4557841
  79.7192569  34.3258712  43.1396594  78.8780575  34.2262587  43.3475488
  79.9282576  35.0954193  43.4910915  79.6257261  34.4250756  43.2223909
  77.1968135  31.9478249  40.9681345  76.8024833  32.0221261  40.1931454
  76.6408252  32.3336196  41.5189706  77.0570948  32.0160024  40.9349004
  81.5927584  39.4689832  47.0966289  81.4847939  39.4791895  47.9628347
  81.8023366  40.2944613  46.9071243  81.6077695  39.5930907  47.1970381
  79.6101376  36.7202475  44.5588227  79.0189310  37.3611973  44.5291242
  80.3722400  37.1440092  44.5319526  79.6349637  36.8778313  44.5503374
  80.0061999  27.8804473  45.2256245  80.4663481  27.9543402  45.9631368
  80.0518106  28.6785727  44.8756066  80.0812555  28.0098620  45.2829001
  81.6545349  28.5471167  49.7928272  81.2630914  27.9004515  50.2284049
  81.8231212  29.1382603  50.4122527  81.6216259  28.5385435  49.9490978
  76.7949777  31.5093663  47.6007961  77.6575390  31.4089372  47.5145291
  76.4641560  30.9288372  47.0393533  76.8734973  31.4085290  47.5053367
  80.1551563  30.3336112  44.2618379  79.5304633  30.3454504  43.6544332
  79.8197158  30.8096287  44.9109619  80.0137055  30.4054629  44.2674947
  80.3393312  28.6761231  30.3191064  79.9906116  29.3280956  30.7822613
  79.8589757  28.6618344  29.5914935  80.2163556  28.7704284  30.2802155
  76.8677239  38.3936572  45.7022143  76.3377163  37.7029011  45.7517118
  77.1402332  38.3846758  44.8734852  76.8301961  38.2903704  45.5869559
  79.4242308  31.9429260  46.4793247  79.5835795  31.1872584  46.8844969
  79.2435202  32.4920200  47.1333985  79.4207667  31.9123074  46.6355953
  72.1473081  35.0664336  43.0590492  72.0416530  35.0211181  42.1942576
  71.3973301  35.4118117  43.3404776  72.0208684  35.1105245  42.9727821
  80.9166813  26.5103660  43.0053092  80.9565185  27.0112866  43.7187799
  80.0916478  26.6014053  42.7359015  80.8006339  26.5985476  43.0703630
  82.3381177  33.0264170  45.3026991  81.5073106  33.1937988  45.0962239
  82.2832694  32.6500120  46.0875876  82.2070591  32.9953901  45.3875519
  80.1464960  26.5173062  50.9383401  80.7717663  25.9735195  51.2112834
  79.6915440  26.0367980  50.3691192  80.1713220  26.3662544  50.8944995
  80.7117220  31.3019761  35.8317108  80.8520181  31.7992225  36.5345750
  81.2099753  30.6006055  35.9731322  80.8058301  31.2721740  35.9568687
  80.7417443  32.1686872  33.1609685  81.3762522  32.7647297  33.0959147
  80.8243054  31.8690330  33.9755555  80.8473994  32.2127780  33.2712772
  77.2470431  34.3654713  36.4299231  77.7562660  34.9619220  36.8110537
  77.7204703  34.0980687  35.7475651  77.3913806  34.4140528  36.3853754
  79.6060962  31.0010971  39.2972412  78.8872952  31.4175104  39.5645275
  79.9773325  31.5665210  38.7464050  79.5552894  31.1460253  39.2555219
  82.5384582  31.8522949  47.6672642  82.0263485  31.2444132  48.0257673
  82.3664078  32.5679541  48.1346617  82.4374219  31.8686248  47.7888865
  77.3850296  30.2960524  50.3175003  77.2152887  30.9561899  49.7723210
  76.9416246  30.5067085  51.0387493  77.2949630  30.4246506  50.3436633
  81.3110116  28.5365022  39.3601737  81.7867482  28.8982102  38.7251918
  80.8098715  29.1921490  39.6401880  81.3075475  28.6859211  39.3078478
  74.2852361  33.2007390  45.5763493  73.7379080  32.5308035  45.6944362
  75.0744739  32.8337238  45.6406961  74.3204545  33.0472376  45.6032194
  73.0439330  32.4128198  42.7309516  72.8661092  31.9604807  43.4564432
  72.7558353  33.2154359  42.9147994  72.9752284  32.4650755  42.8653019
  74.7811800  34.9455921  39.8431275  73.9157320  34.9341612  39.7314047
  74.8810616  34.7586144  40.6902415  74.6685967  34.9161983  39.9520220
  80.4068810  44.7153820  43.4161381  80.7215369  45.5290208  43.4239163
  80.8162224  44.3304039  44.0843540  80.5136908  44.7782522  43.5165473
  81.9351272  24.9010512  46.1901181  82.4795685  24.5601639  46.7805523
  81.9888207  25.7595974  46.3322466  82.0240391  24.9765772  46.2983055
  77.7481830  38.6626928  43.0639989  78.3526688  38.6222763  42.4353810
  77.5409143  39.5098080  43.0944045  77.8070728  38.7814931  42.9756106
  72.9833113  37.6461546  42.9338912  72.8857391  36.8357817  43.2428969
  73.7661982  37.6253339  42.5485181  73.0849249  37.5228636  42.9225775
  80.3398318  18.6288917  24.6975312  79.5881217  18.2504456  24.4691357
  80.7884329  18.6607351  23.9494122  80.2947985  18.5774525  24.5532814
  81.9183074  18.6407310  26.9638084  82.0193437  17.8307663  27.2735212
  81.3224819  18.5464256  26.3337763  81.8455613  18.5072338  26.9164323
  81.7583814  23.5584899  28.3652940  82.4021269  23.9998063  28.7549099
  82.0840069  22.7538325  28.2783199  81.9015642  23.5050093  28.4098418
  75.1148118  14.6627596  26.5890418  74.8798303  13.8295248  26.4822687
  75.2533759  14.9432262  25.7751619  75.1003781  14.5811100  26.4532773
  76.6765443  19.5413267  27.8646624  76.1933021  20.2663757  27.8406208
  77.4888761  19.8389397  27.9756782  76.7256191  19.6915621  27.8773903
  79.5309640  20.0569443  28.0166904  80.2330219  19.5421432  28.0739661
  79.4507123  20.3843594  28.8213779  79.6233401  20.0283669  28.1439696
  78.8560416  16.2475795  27.5252512  79.6949315  16.4798728  27.5726274
  78.8872185  15.3780106  27.4559547  78.9842133  16.1532741  27.5217157
  79.4813119  16.6676670  31.8265818  80.0211344  16.5247801  32.4969190
  78.7983065  17.0673421  32.1949844  79.4605273  16.7056341  31.9800239
  74.8850264  12.8876961  31.9800239  74.6188679  12.0716077  32.1391229
  74.8988828  12.9330116  31.1095755  74.8474986  12.7733866  31.8753721
  75.2943677  13.6735740  29.2611983  75.1119251  13.6482626  28.4084276
  76.0293346  14.1434678  29.3000892  75.3757741  13.7397102  29.1409902
  75.2614588  10.5529241  29.4111050  75.8388090  10.4165692  30.0503295
  74.5628649  10.0965025  29.6656634  75.2435609  10.4651507  29.5433340
  70.7373421   9.4041134  26.1258869  70.8233673   9.0273002  26.9072399
  71.3649218   9.0301579  25.6478827  70.8429972   9.2926616  26.1704346
  81.6336737  15.9344530  26.2955925  82.2710684  15.6956278  26.8407719
  82.0591809  16.1381689  25.5609086  81.7912903  15.9295541  26.2673083
  76.3249380  18.1732867  30.1790229  76.3653525  18.4447718  29.3510009
  76.8843904  18.6974775  30.5948017  76.4132725  18.2908622  30.1182117
  77.7763966  16.7574816  25.0044155  76.9502083  17.0036553  24.8778434
  77.8375957  16.6786897  25.8706213  77.6638133  16.7819765  25.1133100
  80.4968710  21.3519078  25.7723335  80.2769006  21.0616433  26.5650002
  80.2763232  20.6934033  25.2441247  80.4316305  21.2118787  25.8112243
  79.4085658  13.4392395  28.0379036  79.1198906  12.8129866  28.5724764
  80.2769006  13.3812682  28.1043717  79.4945910  13.3379939  28.1269991
  79.6117931  15.0787646  23.9621401  80.3663899  15.4600685  24.1756864
  79.0188544  15.5298790  24.4168098  79.6354645  15.2016473  24.0604280
  80.9316158  16.2496207  29.3361517  80.4096911  16.3896499  30.0213382
  81.3190178  15.4906872  29.5263634  80.9119859  16.1581731  29.4662593
  78.4068630  12.5713037  33.9578016  78.9189727  12.8497290  33.3086776
  78.1204973  13.3102331  34.3240829  78.4403493  12.7215390  33.9167894
  81.4962643  19.9556987  32.4191372  81.6452207  19.3959903  31.7664777
  82.2762645  20.0348989  32.8023891  81.6336737  19.8842553  32.3788322
  79.1978329  12.5141488  25.1260379  79.3542949  12.4488291  25.9816371
  79.5378923  13.2890041  24.9139059  79.2711564  12.6190687  25.2214973
  81.2878408  16.4067964  34.0306336  81.1798763  16.4170026  34.8968394
  81.4974190  17.2322744  33.8411290  81.3028519  16.5309038  34.1310428
  79.3052200  13.6580606  31.4928274  78.7140134  14.2990104  31.4631289
  80.0673224  14.0818223  31.4659573  79.3300461  13.8156444  31.4843421
  76.5628062  15.3314703  32.6362190  76.0327987  14.6407142  32.6857165
  76.8353156  15.3224889  31.8074899  76.5252785  15.2281835  32.5209606
  71.8423905  12.0042468  29.9930538  71.7367354  11.9589312  29.1282622
  71.0924125  12.3496248  30.2744823  71.7159508  12.0483376  29.9067868
  76.9421255  11.3032844  23.3639278  77.4513484  11.8997352  23.7450584
  77.4155527  11.0358818  22.6815698  77.0864630  11.3518660  23.3193801
  74.4762624  11.8834052  26.7771322  73.6108144  11.8719743  26.6654093
  74.5761440  11.6964275  27.6242461  74.3636791  11.8540114  26.8860267
  80.1019634  21.6531951  30.3501428  80.4166193  22.4668340  30.3579209
  80.5113048  21.2682170  31.0183587  80.2087732  21.7160653  30.4505519
  77.4432654  15.6005060  29.9980036  78.0477512  15.5600894  29.3693857
  77.2359967  16.4476212  30.0284092  77.5021552  15.7193062  29.9096153
  72.6783937  14.5839677  29.8678959  72.5808215  13.7735949  30.1769016
  73.4612806  14.5631470  29.4825227  72.7800073  14.4606767  29.8565822
  81.7106004  24.9226442  26.1258869  81.7966256  24.5458310  26.9072399
  82.3381802  24.5486887  25.6478827  81.8162555  24.8111924  26.1704346
   1.0206420  30.0612404  68.5004592   1.7879405  30.1212529  68.0910444
   0.5737729  29.4892845  68.0160910   1.0679847  29.9848979  68.3682302
  17.5491646  39.9063447  76.1690323  17.5185650  40.7608084  76.3408592
  18.1472994  39.6058740  76.7276467  17.6328804  39.9879944  76.2765125
  10.5857430  48.9527186  72.1166032  10.2508799  49.6304107  71.6810254
  11.0984301  48.5632497  71.5282904  10.6123011  48.9951764  71.9652824
  15.3708220  42.4815749  74.4408633  15.2547746  43.2323435  74.8700771
  16.1664107  42.2239703  74.6904720  15.4712810  42.5550596  74.5412725
   7.2538546  46.4709772  75.7277975   7.5754387  47.0114980  75.1239283
   7.9010642  45.9006544  75.8600265   7.3964601  46.4668947  75.6585011
   9.3040254  38.4725767  75.8112362  10.0020419  38.6513895  76.3033825
   9.6192586  37.9496107  75.1882751   9.4535591  38.4219539  75.7914372
   9.4928189  44.8596212  75.7992153   9.9321825  44.2513313  76.2446926
   9.3432852  44.4803586  75.0277619   9.5349655  44.7134683  75.7511321
  13.0937526  43.2123394  72.7522923  13.0088821  44.0684360  72.8972492
  13.5821909  42.9367718  73.4205082  13.1526423  43.2980715  72.8725004
  14.0255959  39.8308188  74.2520658  13.4967430  40.0467821  74.9117964
  14.5480979  40.5244326  74.1721627  14.0244412  39.9651325  74.3376257
  19.4804012  45.4054492  79.6253702  18.6501715  45.6165136  79.7887119
  19.4313264  44.5791547  79.3495986  19.3510747  45.3144099  79.6091068
   5.9155567  43.7271405  73.0528126   5.3312782  44.2321436  73.4593990
   5.5125662  43.5013791  72.3124718   5.7694871  43.7679653  73.0033151
  10.3732781  39.9737057  71.5297046  10.6128785  40.1815040  70.7172390
  10.6948622  39.1694565  71.6385991  10.4569939  39.8851158  71.4257599
   4.0380136  34.3100771  72.0734697   3.8555709  34.5272652  71.2475690
   4.9005749  34.4239784  72.1293312   4.1384726  34.3590669  71.9589184
  13.6988156  42.2480569  79.0116015  14.4545671  42.6812084  79.0504924
  13.8050480  41.5985339  79.5850651  13.8258327  42.2158053  79.1014041
  16.7368327  46.0753847  79.7618418  16.3003559  46.0790589  80.5177390
  16.4031243  46.7559346  79.3297996  16.6230947  46.1766302  79.8099251
   3.5842163  37.5874944  70.5857170   2.8700340  37.3013123  70.9979603
   4.0686132  37.9271570  71.2263558   3.5501526  37.5956594  70.7412805
  19.8712673  42.7934767  78.6538055  20.5329107  42.2325435  78.5533964
  19.2304085  42.2986797  78.9790747  19.8741541  42.6371176  78.6870396
  10.7589481  46.0904898  70.9618979  11.1740630  45.7589922  70.2703474
   9.9281411  45.8573800  70.8339115  10.6977490  46.0076154  70.8409826
  16.1577504  43.8100149  78.3950044  16.3933093  43.9545348  77.5676895
  16.3067068  44.5742557  78.7881558  16.2143307  43.9439203  78.3313648
  17.9867961  42.6501815  76.2319648  18.3176178  43.1829455  75.6259743
  18.5601049  42.7040703  76.8881599  18.1201640  42.7371384  76.2397430
  13.1999850  40.4966718  76.9143228  13.2946704  41.2356012  77.3682854
  12.5758693  40.0684193  77.3477793  13.1208880  40.5428038  77.0451376
  13.4522871  42.3415457  70.1480180  13.3703034  42.4117644  71.0135167
  14.0902592  42.9045201  69.9563921  13.5342709  42.4354428  70.2470130
  19.0947312  37.8912312  77.7359810  18.8383877  37.0792253  77.5457692
  19.9376626  37.8989879  77.5089997  19.1813338  37.7724309  77.6744627
  10.5562981  42.3635912  73.1588787  11.3703620  42.6550804  73.0471558
  10.4922123  41.7095774  72.5847080  10.6665720  42.3101106  73.0577624
   7.0673705  41.0559719  72.6235988   7.4518857  40.8367426  73.3752533
   6.8185325  41.8822664  72.7537064   7.0875777  41.1457865  72.7537064
  17.8008892  44.8306357  83.6346657  17.4954709  45.5634413  83.9959972
  17.0815108  44.4244286  83.3539443  17.6496234  44.8788090  83.6459794
  23.5010684  41.4699357  82.9615001  23.4335185  41.4895316  82.0917587
  23.4866347  42.3129684  83.1870671  23.4889441  41.5973092  82.8667478
   7.3496947  49.2764595  74.6968358   7.6395246  48.8853576  73.9727585
   8.0800428  49.4581300  75.1373634   7.5003832  49.2458409  74.6551165
  21.2869302  40.2443743  81.2361595  21.8377223  39.6111812  81.4758687
  21.2713417  40.7759136  81.9277100  21.3654498  40.2292692  81.3740454
  15.4510737  44.9465781  75.8890180  16.0168770  45.6058991  75.8048723
  14.8038640  45.2915479  76.3606582  15.4389493  45.0947722  75.9462936
  11.9217315  47.8904565  75.3127259  11.6803991  47.1572426  74.9054324
  12.1018648  48.4391422  74.6593592  11.9124939  47.8626957  75.1557482
   7.1516636  43.1813125  76.7248181   6.9559418  43.7887860  76.1308484
   7.3750981  42.4881069  76.2439855   7.1551277  43.1690651  76.5664262
  17.3846197  41.6099649  79.5086976  17.2980172  41.7655075  80.3621755
  16.9296677  42.2537724  79.1346381  17.3049454  41.7275404  79.5794083
  15.1520062  45.6393755  81.9199317  15.0134421  46.3374801  82.4248059
  14.3720060  45.4842412  81.5635499  15.0163289  45.7193922  81.9425591
  16.6473435  44.9972009  72.6815816  16.2680244  44.2109147  72.6745105
  15.9839680  45.5458866  72.5387460  16.4931910  44.9616833  72.6596613
   9.4720343  48.5485528  76.5204642  10.2370234  48.2795172  76.1987307
   9.3698433  48.0635538  77.2374705   9.5701838  48.4375093  76.5784470
  11.9939004  45.5797712  68.5004592  12.7611989  45.6397837  68.0910444
  11.5470313  45.0078153  68.0160910  12.0412431  45.5034287  68.3682302
  12.8916799  44.3852368  80.7857324  12.2161801  44.1537600  81.2870711
  12.9009175  43.7773550  80.1599429  12.7935304  44.2611293  80.7673476
  14.8933534  47.2417500  73.0167502  14.9753371  48.0484486  72.6928953
  15.3783276  47.2613459  73.7408275  14.9770692  47.3638162  73.0754401
  10.5291627  41.7912271  75.9858916  11.0707172  41.2882652  76.4497536
  10.8438186  41.7377465  75.1748401  10.6556024  41.7091692  75.9342728
   8.6978076  47.1829622  73.2698944   8.7670897  46.3244161  73.4091944
   9.4766531  47.4001503  72.9417968   8.8230926  47.0882486  73.2416101
  13.0885564  49.6067324  77.4835437  12.6965356  49.3034039  76.7658303
  13.2438636  50.4436414  77.2940391  13.0539154  49.6851160  77.3491934
  13.2525239  46.1717312  77.4241468  12.8939893  46.3431955  78.2005500
  12.7663949  46.6330518  76.8669466  13.1283936  46.2656284  77.4566737
   8.0413604  41.8516478  69.9641702   8.3306129  42.6281360  70.2385276
   8.1285403  41.3405209  70.6656201   8.0967860  41.8908396  70.1084200
  10.5770827  34.0745179  74.1530708  11.0314574  34.2455739  74.8778553
  11.0510873  33.4613289  73.7528484  10.7139148  34.0096064  74.2004470
   7.9183847  40.7787713  75.2575716   8.6625892  41.1661989  75.4958666
   8.0644544  39.9345139  75.4216203   8.0494433  40.7118186  75.3169685
  12.8345223  37.2449741  74.2195389  12.3068242  37.3278485  73.5301098
  13.2940931  37.9867613  74.2160033  12.8247073  37.3670403  74.1170084
  19.1703641  38.1917019  80.5205675  18.9313411  38.1512853  79.6826459
  19.3337542  39.0388171  80.6471396  19.1593944  38.3109104  80.4159157
   4.8278288  35.5152261  69.2436284   4.4791092  36.1671986  69.7067833
   4.3474734  35.5009374  68.5160155   4.7048532  35.6095314  69.2047375
  12.3882305  45.8153305  73.3505046  13.1116504  46.2811418  73.2069619
  11.9482896  45.8826914  72.6002643  12.4297998  45.8937141  73.2189827
   5.2302419  39.0077902  72.0854905   5.8647499  39.6038327  72.0204367
   5.3128030  38.7081360  72.9000775   5.3358970  39.0518810  72.1957992
   6.8081402  34.9391877  72.0600347   7.1297243  34.4594960  71.4059610
   7.0708346  35.7491524  71.8691159   6.8947427  34.9881775  71.9355839
   1.7355407  41.2045743  75.3544451   2.2447636  41.8010250  75.7355757
   2.2089679  40.9371716  74.6720871   1.8798783  41.2531558  75.3098974
  12.6486155  49.8774010  73.5103107  11.9315465  49.7034872  73.0450344
  13.2992893  49.6426582  72.9778593  12.6388006  49.8169802  73.3632325
  15.2334126  38.7538598  77.2544412  14.5625316  39.2968300  77.1257478
  15.9273877  39.2233453  77.0126107  15.2362994  38.9036869  77.1999940
   9.8692513  36.8800001  73.5591011   9.2757352  37.2016998  73.0075578
   9.9067791  36.0341097  73.3512117   9.7866902  36.8024330  73.4473782
  19.0306454  44.8477820  74.0759962  19.4140060  45.5969176  74.3058059
  18.2350567  45.0943640  73.8171951  18.9700236  44.9947514  74.0717536
   7.8421745  37.5197252  71.6520341   8.2220710  37.5376881  70.8671456
   7.1014341  37.9651241  71.5311188   7.7890583  37.5879027  71.5183909
   8.6406499  44.3574758  73.0429131   7.8317822  44.0341432  72.9962441
   9.1481408  43.6507980  72.9757380   8.5956166  44.2056075  73.0259425
  11.8478306  46.9714897  79.9110413  12.3189484  47.6855159  80.0800398
  12.1838485  46.3713647  80.4470282  11.9673421  46.9886361  80.0142789
  28.5224229  55.4248755  76.1690323  28.4918234  56.2793392  76.3408592
  29.1205578  55.1244048  76.7276467  28.6061387  55.5065252  76.2765125
  21.7223914  54.5124406  80.9243253  20.8661810  54.6732904  80.9752370
  21.7691568  53.6416470  80.9448315  21.6023026  54.4075208  80.9349319
  21.5590014  64.4712494  72.1166032  21.2241382  65.1489415  71.6810254
  22.0716884  64.0817805  71.5282904  21.5855595  64.5137072  71.9652824
  24.5675735  56.5716450  83.5674905  25.1131695  57.2501537  83.6268875
  24.5092611  56.4303911  82.7076487  24.6391650  56.6508452  83.4486966
  26.3440804  58.0001057  74.4408633  26.2280330  58.7508743  74.8700771
  27.1396691  57.7425011  74.6904720  26.4445393  58.0735904  74.5412725
  18.2271129  61.9895080  75.7277975  18.5486970  62.5300288  75.1239283
  18.8743226  61.4191852  75.8600265  18.3697185  61.9854255  75.6585011
  20.2772837  53.9911075  75.8112362  20.9753002  54.1699203  76.3033825
  20.5925170  53.4681415  75.1882751  20.4268175  53.9404847  75.7914372
  20.4660773  60.3781520  75.7992153  20.9054408  59.7698621  76.2446926
  20.3165436  59.9988894  75.0277619  20.5082238  60.2319991  75.7511321
  18.4499701  49.3603472  79.8933637  18.1203031  49.8114615  79.2237335
  17.7744703  49.2819635  80.4406643  18.3010137  49.4154607  79.8756860
  24.0670109  58.7308702  72.7522923  23.9821404  59.5869668  72.8972492
  24.5554493  58.4553026  73.4205082  24.1259007  58.8166023  72.8725004
  24.9988543  55.3493496  74.2520658  24.4700014  55.5653129  74.9117964
  25.5213563  56.0429634  74.1721627  24.9976996  55.4836633  74.3376257
  30.4536595  60.9239800  79.6253702  29.6234299  61.1350444  79.7887119
  30.4045848  60.0976855  79.3495986  30.3243331  60.8329406  79.6091068
  16.8888150  59.2456712  73.0528126  16.3045366  59.7506744  73.4593990
  16.4858246  59.0199099  72.3124718  16.7427454  59.2864961  73.0033151
  21.3465365  55.4922365  71.5297046  21.5861368  55.7000348  70.7172390
  21.6681206  54.6879873  71.6385991  21.4302523  55.4036466  71.4257599
  16.6555655  47.4215760  75.3756584  17.4101623  47.7894077  75.1373635
  16.4783190  47.7955315  76.1435764  16.7410133  47.5313948  75.4541473
  29.9490554  53.5710201  83.4204124  29.1118975  53.6412388  83.6551718
  29.9178785  53.5734696  82.5478426  29.8208836  53.5820428  83.3263672
  15.0112720  49.8286079  72.0734697  14.8288293  50.0457960  71.2475690
  15.8738333  49.9425092  72.1293312  15.1117309  49.8775977  71.9589184
  20.6912439  46.8312490  75.1083721  21.4198599  46.6528445  74.6621877
  20.7807332  47.6730570  75.3190899  20.8119101  46.9296368  75.0737239
  24.6720740  57.7665877  79.0116015  25.4278255  58.1997392  79.0504924
  24.7783064  57.1170647  79.5850651  24.7990910  57.7343361  79.1014041
  27.7100911  61.5939155  79.7618418  27.2736143  61.5975897  80.5177390
  27.3763826  62.2744654  79.3297996  27.5963531  61.6951610  79.8099251
  27.6298394  48.6352982  82.0047846  28.2724302  48.7051087  82.5909761
  27.8821414  47.9682205  81.5027388  27.7620526  48.5479331  82.0175125
  14.5574747  53.1060252  70.5857170  13.8432924  52.8198431  70.9979603
  15.0418715  53.4456878  71.2263558  14.5234110  53.1141902  70.7412805
  30.8445257  58.3120074  78.6538055  31.5061691  57.7510743  78.5533964
  30.2036669  57.8172105  78.9790747  30.8474124  58.1556484  78.6870396
  21.7322065  61.6090206  70.9618979  22.1473213  61.2775230  70.2703474
  20.9013994  61.3759108  70.8339115  21.6710073  61.5261462  70.8409826
  27.1310088  59.3285457  78.3950044  27.3665677  59.4730656  77.5676895
  27.2799651  60.0927865  78.7881558  27.1875891  59.4624511  78.3313648
  28.9600544  58.1687123  76.2319648  29.2908761  58.7014763  75.6259743
  29.5333632  58.2226011  76.8881599  29.0934223  58.2556692  76.2397430
  24.1732433  56.0152026  76.9143228  24.2679288  56.7541320  77.3682854
  23.5491277  55.5869501  77.3477793  24.0941464  56.0613346  77.0451376
  24.4255455  57.8600765  70.1480180  24.3435617  57.9302952  71.0135167
  25.0635175  58.4230509  69.9563921  24.5075292  57.9539736  70.2470130
  17.7848626  57.6261503  79.6154706  17.5267870  56.7933238  79.5886006
  17.8397109  57.8519116  78.7747207  17.7548404  57.5359275  79.4874843
  22.8649676  49.7289954  79.7158799  22.1606003  49.2399139  79.8742718
  22.9134650  49.7412428  78.8447243  22.7679728  49.6579602  79.6098139
  30.0679896  53.4097620  77.7359810  29.8116461  52.5977561  77.5457692
  30.9109210  53.4175187  77.5089997  30.1545921  53.2909617  77.6744627
  24.2482988  47.3497244  82.4735964  24.6293500  46.6675415  82.8603838
  23.4446273  47.0606846  82.2911628  24.1859450  47.2064292  82.5040020
  21.5295565  57.8821220  73.1588787  22.3436204  58.1736112  73.0471558
  21.4654706  57.2281082  72.5847080  21.6398304  57.8286414  73.0577624
  18.0406288  56.5745027  72.6235988  18.4251441  56.3552734  73.3752533
  17.7917909  57.4007972  72.7537064  18.0608361  56.6643173  72.7537064
  28.7741476  60.3491664  83.6346657  28.4687293  61.0819721  83.9959972
  28.0547691  59.9429594  83.3539443  28.6228818  60.3973397  83.6459794
  34.4743268  56.9884665  82.9615001  34.4067768  57.0080624  82.0917587
  34.4598930  57.8314992  83.1870671  34.4622024  57.1158400  82.8667478
  15.7606726  48.2441963  77.9544769  14.8929151  48.3164563  78.0202378
  16.0481930  49.0464042  78.1432744  15.6746474  48.3736111  77.9919535
  24.8839614  48.3919823  86.2856090  25.6293206  48.2029633  85.8719516
  24.4676919  48.9178061  85.7269947  24.9324589  48.4421968  86.1420664
  18.3229531  64.7949903  74.6968358  18.6127829  64.4038884  73.9727585
  19.0533012  64.9766608  75.1373634  18.4736415  64.7643716  74.6551165
  32.2601885  55.7629051  81.2361595  32.8109807  55.1297120  81.4758687
  32.2446001  56.2944444  81.9277100  32.3387082  55.7478000  81.3740454
  25.9630291  54.0025385  80.3466192  25.6195057  53.2815720  80.6973441
  26.0623334  53.7939236  79.5044550  25.9272334  53.8649588  80.2737872
  26.4243321  60.4651089  75.8890180  26.9901353  61.1244299  75.8048723
  25.7771224  60.8100787  76.3606582  26.4122077  60.6133030  75.9462936
  13.6874078  51.7200223  75.3961645  13.3998873  51.3501493  74.6593592
  14.3744546  52.1895078  75.1345350  13.7462975  51.7347192  75.2476721
  22.8949899  63.4089873  75.3127259  22.6536575  62.6757734  74.9054324
  23.0751232  63.9576730  74.6593592  22.8857523  63.3812264  75.1557482
  18.1249219  58.6998433  76.7248181  17.9292002  59.3073168  76.1308484
  18.3483565  58.0066377  76.2439855  18.1283860  58.6875959  76.5664262
  16.5227749  55.5853171  76.8429050  17.2450401  55.7494329  76.3832855
  16.0435742  56.3062836  76.7368389  16.5591480  55.7151401  76.7594664
  24.4821257  51.9216970  82.2225734  23.6432358  51.9478249  81.9863998
  24.5525624  52.5687705  82.8031081  24.3689650  52.0213096  82.2734851
  22.9290535  48.8202347  76.9553350  23.6316888  48.6210095  76.4773309
  22.6634724  48.0478289  77.2622194  22.9937167  48.6765313  76.9298792
  28.3578781  57.1284957  79.5086976  28.2712755  57.2840383  80.3621755
  27.9029261  57.7723032  79.1346381  28.2782037  57.2460712  79.5794083
  11.2602272  52.4981435  76.2446926  11.3618409  53.3007597  76.5727901
  12.0558159  52.2968771  75.9470006  11.3930178  52.5867334  76.2482281
  22.2304597  54.4495704  78.1312536  21.9839311  54.3691455  78.9649325
  22.5589720  53.6649171  77.9375063  22.2425840  54.3221969  78.2260059
  26.1252646  61.1579063  81.9199317  25.9867005  61.8560109  82.4248059
  25.3452643  61.0027719  81.5635499  25.9895872  61.2379230  81.9425591
  27.6206018  60.5157317  72.6815816  27.2412827  59.7294455  72.6745105
  26.9572264  61.0644174  72.5387460  27.4664493  60.4802141  72.6596613
  25.0750644  43.4583017  80.0849897  25.1934212  43.9159480  79.3517200
  24.9012820  42.6528278  79.7986115  25.0669815  43.4076789  79.9350831
  20.4452927  64.0670836  76.5204642  21.2102818  63.7980480  76.1987307
  20.3431017  63.5820846  77.2374705  20.5434422  63.9560400  76.5784470
  22.9671587  61.0983020  68.5004592  23.7344572  61.1583145  68.0910444
  22.5202896  60.5263461  68.0160910  23.0145014  61.0219595  68.3682302
  23.8649383  59.9037675  80.7857324  23.1894384  59.6722908  81.2870711
  23.8741759  59.2958858  80.1599429  23.7667887  59.7796601  80.7673476
  25.8666117  62.7602808  73.0167502  25.9485955  63.5669794  72.6928953
  26.3515859  62.7798767  73.7408275  25.9503275  62.8823470  73.0754401
  21.5024210  57.3097579  75.9858916  22.0439756  56.8067960  76.4497536
  21.8170769  57.2562773  75.1748401  21.6288607  57.2277000  75.9342728
  19.6710660  62.7014930  73.2698944  19.7403480  61.8429469  73.4091944
  20.4499115  62.9186811  72.9417968  19.7963510  62.6067794  73.2416101
  22.6513480  52.2033883  86.0381216  22.8655449  51.5644797  85.4844570
  22.0347379  52.6479707  85.6089078  22.5918809  52.1744027  85.8931647
  24.0618147  65.1252632  77.4835437  23.6697939  64.8219347  76.7658303
  24.2171220  65.9621722  77.2940391  24.0271737  65.2036468  77.3491934
  24.8152568  53.8122948  86.9764523  24.0029249  53.5048839  87.0577696
  25.2742502  53.3321949  87.5407235  24.7632952  53.6959441  87.0719117
  24.2257822  61.6902620  77.4241468  23.8672477  61.8617263  78.2005500
  23.7396533  62.1515826  76.8669466  24.1016519  61.7841591  77.4566737
  22.0428208  45.3133819  81.0268559  21.1721766  45.2872540  80.9801868
  22.2968549  45.1411011  80.2094405  21.9521768  45.2843963  80.8988696
  19.0146188  57.3701786  69.9641702  19.3038712  58.1466668  70.2385276
  19.1017986  56.8590517  70.6656201  19.0700444  57.4093704  70.1084200
  19.0677349  47.3240047  82.4842029  18.5515837  46.6320239  82.6093608
  18.5071278  47.9910824  82.4304628  18.9083862  47.3203305  82.4948095
  21.1369582  47.8633007  84.3134882  20.7501335  47.8882039  85.0948412
  20.6502519  47.2974686  83.8609398  21.0082091  47.7828758  84.3622786
  27.1119562  54.4295662  82.9374584  26.6847170  54.3422011  82.1822684
  26.4745615  54.5373438  83.5229428  26.9549169  54.4328322  82.9120026
  24.2950642  47.2835881  79.5730444  24.5000236  47.2158189  80.4187441
  23.9677066  48.0894703  79.5051621  24.2765890  47.3921822  79.6890099
  18.9926793  54.6116450  81.3139412  18.6889931  54.0572438  81.9149819
  18.2906214  54.7908660  80.8267446  18.8443003  54.5561232  81.3309117
  18.0492891  51.9216969  75.8784113  18.3252625  51.2035882  75.4661681
  18.6491560  52.5201889  75.6705219  18.1786155  51.9037340  75.7864875
  27.5484330  47.8367646  79.0533209  26.9358644  48.3238048  79.4386941
  27.6448505  47.1611136  79.5970860  27.4722228  47.8085954  79.1912067
  21.5503411  49.5930487  74.1530708  22.0047158  49.7641047  74.8778553
  22.0243457  48.9798597  73.7528484  21.6871731  49.5281372  74.2004470
  31.1909358  58.9084582  84.4810725  31.2492482  59.3571231  85.2270702
  30.5575826  59.3183395  84.0440805  31.1060653  59.0358317  84.5263274
  18.8916431  56.2973021  75.2575716  19.6358476  56.6847297  75.4958666
  19.0377127  55.4530446  75.4216203  19.0227016  56.2303494  75.3169685
  20.8096006  48.0923280  80.2907577  19.9632052  48.2646088  80.1648927
  20.8067139  47.2872624  80.6273405  20.6843156  47.9984309  80.3218704
  21.8794307  51.8698494  81.1569635  21.4054261  51.3440256  81.6674946
  22.2512443  51.3227967  80.5884497  21.8644196  51.7114491  81.1484782
  28.1431037  56.9300870  82.5676416  27.9029260  56.0907285  82.5718842
  28.6223045  57.0101037  83.2917189  28.1783221  56.8182270  82.6751218
  23.8077807  52.7635049  74.2195389  23.2800825  52.8463793  73.5301098
  24.2673515  53.5052920  74.2160033  23.7979657  52.8855711  74.1170084
  30.1436224  53.7102327  80.5205675  29.9045994  53.6698161  79.6826459
  30.3070126  54.5573479  80.6471396  30.1326528  53.8294412  80.4159157
  26.7482255  58.0952277  86.4510720  27.4716453  57.6424803  86.2721740
  26.4832217  58.3756942  85.6683048  26.8163528  58.0703245  86.3089435
  15.8010872  51.0337569  69.2436284  15.4523676  51.6857294  69.7067833
  15.3207317  51.0194682  68.5160155  15.6781116  51.1280622  69.2047375
  23.3614889  61.3338613  73.3505046  24.0849088  61.7996726  73.2069619
  22.9215480  61.4012222  72.6002643  23.4030581  61.4122449  73.2189827
  22.8280171  46.4666833  85.9589257  22.3320733  46.6630508  85.2680824
  23.5849233  46.8659502  85.7878059  22.8666996  46.5544567  85.8309394
  20.0983051  50.1409179  82.5492567  20.1225538  49.6069292  81.8605347
  20.3494525  49.6326488  83.2118158  20.1392970  49.9870083  82.5457212
  16.3784373  48.8679998  81.9298312  16.4182745  49.3689204  82.6433019
  15.5534038  48.9590391  81.6604235  16.2623899  48.9561814  81.9948850
  16.1734780  53.6596099  74.7562328  16.3137741  54.1568563  75.4590970
  16.6717313  52.9582393  74.8976542  16.2675861  53.6298078  74.8813908
  16.2035003  54.5263210  72.0854905  16.8380082  55.1223635  72.0204367
  16.2860614  54.2266668  72.9000775  16.3091554  54.5704118  72.1957992
  29.1817569  57.0578687  84.9541269  29.7735409  57.6975938  84.9859468
  29.6176563  56.3601724  85.2433336  29.3336000  57.0497038  85.0022102
  17.7813986  50.4577185  72.0600347  18.1029827  49.9780268  71.4059610
  18.0440929  51.2676831  71.8691159  17.8680011  50.5067083  71.9355839
  23.1773141  49.8449379  84.4223826  23.6028212  49.3921906  83.8107353
  22.5630134  49.2909450  84.6988614  23.1501786  49.6963356  84.3728852
  12.7087991  56.7231051  75.3544451  13.2180220  57.3195558  75.7355757
  13.1822263  56.4557024  74.6720871  12.8531366  56.7716866  75.3098974
  23.6218739  65.3959317  73.5103107  22.9048048  65.2220180  73.0450344
  24.2725476  65.1611890  72.9778593  23.6120589  65.3355110  73.3632325
  21.6167363  46.3164479  77.8314403  20.9735681  46.1662126  78.3999542
  21.2766770  46.0706824  77.0663508  21.4712441  46.2576602  77.8017419
  26.2066710  54.2723906  77.2544412  25.5357900  54.8153608  77.1257478
  26.9006460  54.7418761  77.0126107  26.2095577  54.4222177  77.1999940
  26.3694837  50.7279790  80.1634785  26.7222447  50.3009513  80.8380584
  25.5109639  50.6430633  80.2935862  26.2944282  50.6524530  80.2829796
  24.3678103  53.9915158  84.1119627  24.3476031  53.8098453  84.9654406
  24.4157304  54.8627177  84.0879211  24.3712744  54.0931696  84.2342922
  20.8425097  52.3985309  73.5591011  20.2489936  52.7202306  73.0075578
  20.8800374  51.5526405  73.3512117  20.7599486  52.3209637  73.4473782
  27.8018897  45.8498201  81.0919098  27.2949762  45.1427341  81.0240275
  28.5986331  45.5191390  81.2220174  27.8446137  45.6971353  81.1018093
  23.7182913  52.3564814  76.9892761  23.4896606  52.3797515  76.1471120
  23.9780990  51.5322281  77.1087772  23.7229101  52.2380894  76.8817959
  16.7727676  50.8941360  78.2846957  17.2485042  51.2558440  77.6497138
  16.2716275  51.5497828  78.5647100  16.7693035  51.0435549  78.2323698
  30.0039037  60.3663128  74.0759962  30.3872643  61.1154484  74.3058059
  29.2083151  60.6128948  73.8171951  29.9432820  60.5132822  74.0717536
  18.8154329  53.0382560  71.6520341  19.1953294  53.0562189  70.8671456
  18.0746925  53.4836549  71.5311188  18.7623167  53.1064334  71.5183909
  26.4439620  51.3464751  77.2395920  26.4433846  51.1913408  78.0980196
  26.2395800  52.1927738  77.1837305  26.4139397  51.4485372  77.3583859
  24.1680472  56.0262253  80.8932127  24.6634137  55.3085248  80.8536147
  23.3580247  55.7233050  80.7786614  24.1224365  55.8759899  80.8705852
  19.6139083  59.8760066  73.0429131  18.8050406  59.5526740  72.9962441
  20.1213992  59.1693288  72.9757380  19.5688750  59.7241382  73.0259425
  26.2332290  58.7765940  83.5809255  26.6587362  58.2540362  83.0279680
  25.8689210  59.3746778  83.0597878  26.2418893  58.7876167  83.4218265
  22.8210890  62.4900205  79.9110413  23.2922068  63.2040467  80.0800398
  23.1571068  61.8898955  80.4470282  22.9406005  62.5071669  80.0142789
  22.8112740  44.1858001  83.4649601  22.0058704  44.0755731  83.7817439
  22.6819475  44.2870457  82.6079467  22.6732873  44.1841671  83.3857641
  26.2678701  50.3503493  84.0589298  25.6841689  50.8512700  83.6466865
  26.5882995  49.8433049  83.4253621  26.2291876  50.3495328  83.9047805
  18.8073500  49.2644088  74.3347973  19.6289194  49.4342401  74.0929667
  18.3443151  49.4191349  73.6114270  18.8604662  49.3125821  74.1919617
  32.5322597  79.9897802  72.1166032  32.1973966  80.6674723  71.6810254
  33.0449468  79.6003113  71.5282904  32.5588178  80.0322380  71.9652824
  29.2003713  77.5080388  75.7277975  29.5219554  78.0485596  75.1239283
  29.8475809  76.9377160  75.8600265  29.3429768  77.5039563  75.6585011
  31.2505421  69.5096383  75.8112362  31.9485586  69.6884511  76.3033825
  31.5657754  68.9866722  75.1882751  31.4000758  69.4590155  75.7914372
  31.4393356  75.8966828  75.7992153  31.8786992  75.2883929  76.2446926
  31.2898019  75.5174201  75.0277619  31.4814822  75.7505299  75.7511321
  29.4232285  64.8788780  79.8933637  29.0935615  65.3299923  79.2237335
  28.7477286  64.8004943  80.4406643  29.2742721  64.9339915  79.8756860
  35.0402693  74.2494009  72.7522923  34.9553988  75.1054976  72.8972492
  35.5287076  73.9738334  73.4205082  35.0991590  74.3351331  72.8725004
  36.6308692  60.8674303  78.1383247  36.3162133  61.5577781  78.5703670
  36.1135634  60.8119085  77.4368748  36.5073163  60.9609191  78.0980196
  35.9721126  70.8678804  74.2520658  35.4432598  71.0838437  74.9117964
  36.4946146  71.5614942  74.1721627  35.9709579  71.0021941  74.3376257
  27.8620734  74.7642020  73.0528126  27.2777949  75.2692052  73.4593990
  27.4590829  74.5384407  72.3124718  27.7160038  74.8050269  73.0033151
  32.3197948  71.0107672  71.5297046  32.5593952  71.2185656  70.7172390
  32.6413789  70.2065181  71.6385991  32.4035106  70.9221774  71.4257599
  27.6288239  62.9401068  75.3756584  28.3834207  63.3079385  75.1373635
  27.4515773  63.3140623  76.1435764  27.7142717  63.0499256  75.4541473
  25.9845303  65.3471387  72.0734697  25.8020877  65.5643268  71.2475690
  26.8470916  65.4610400  72.1293312  26.0849893  65.3961285  71.9589184
  31.6645022  62.3497798  75.1083721  32.3931183  62.1713753  74.6621877
  31.7539915  63.1915878  75.3190899  31.7851685  62.4481676  75.0737239
  25.5307330  68.6245560  70.5857170  24.8165507  68.3383739  70.9979603
  26.0151299  68.9642186  71.2263558  25.4966694  68.6327210  70.7412805
  32.7054648  77.1275514  70.9618979  33.1205797  76.7960538  70.2703474
  31.8746578  76.8944416  70.8339115  32.6442657  77.0446770  70.8409826
  35.3988038  73.3786073  70.1480180  35.3168201  73.4488260  71.0135167
  36.0367759  73.9415817  69.9563921  35.4807876  73.4725044  70.2470130
  33.8382260  65.2475262  79.7158799  33.1338586  64.7584447  79.8742718
  33.8867234  65.2597736  78.8447243  33.7412311  65.1764910  79.6098139
  32.5028149  73.4006528  73.1588787  33.3168787  73.6921420  73.0471558
  32.4387290  72.7466390  72.5847080  32.6130888  73.3471722  73.0577624
  29.0138872  72.0930335  72.6235988  29.3984025  71.8738041  73.3752533
  28.7650492  72.9193280  72.7537064  29.0340944  72.1828481  72.7537064
  26.7339309  63.7627271  77.9544769  25.8661735  63.8349871  78.0202378
  27.0214514  64.5649350  78.1432744  26.6479057  63.8921419  77.9919535
  24.6606661  67.2385531  75.3961645  24.3731457  66.8686801  74.6593592
  25.3477130  67.7080386  75.1345350  24.7195559  67.2532500  75.2476721
  29.0981803  74.2183741  76.7248181  28.9024586  74.8258476  76.1308484
  29.3216148  73.5251685  76.2439855  29.1016444  74.2061267  76.5664262
  27.4960333  71.1038479  76.8429050  28.2182985  71.2679637  76.3832855
  27.0168326  71.8248144  76.7368389  27.5324064  71.2336708  76.7594664
  33.9023119  64.3387655  76.9553350  34.6049472  64.1395403  76.4773309
  33.6367307  63.5663597  77.2622194  33.9669751  64.1950621  76.9298792
  22.2334856  68.0166743  76.2446926  22.3350992  68.8192905  76.5727901
  23.0290743  67.8154079  75.9470006  22.3662762  68.1052642  76.2482281
  38.5938602  76.0342625  72.6815816  38.2145411  75.2479763  72.6745105
  37.9304847  76.5829482  72.5387460  38.4397077  75.9987449  72.6596613
  36.0483228  58.9768324  80.0849897  36.1666796  59.4344788  79.3517200
  35.8745404  58.1713586  79.7986115  36.0402399  58.9262097  79.9350831
  33.9404171  76.6168328  68.5004592  34.7077156  76.6768452  68.0910444
  33.4935480  76.0448769  68.0160910  33.9877598  76.5404903  68.3682302
  32.4756794  72.8282887  75.9858916  33.0172339  72.3253268  76.4497536
  32.7903353  72.7748081  75.1748401  32.6021191  72.7462308  75.9342728
  30.6443243  78.2200238  73.2698944  30.7136064  77.3614777  73.4091944
  31.4231699  78.4372119  72.9417968  30.7696093  78.1253102  73.2416101
  33.0160792  60.8319127  81.0268559  32.1454350  60.8057848  80.9801868
  33.2701133  60.6596319  80.2094405  32.9254352  60.8029271  80.8988696
  29.9878771  72.8887094  69.9641702  30.2771296  73.6651976  70.2385276
  30.0750570  72.3775825  70.6656201  30.0433027  72.9279012  70.1084200
  30.0409932  62.8425355  82.4842029  29.5248421  62.1505547  82.6093608
  29.4803861  63.5096132  82.4304628  29.8816445  62.8388613  82.4948095
  35.2683226  62.8021189  79.5730444  35.4732819  62.7343497  80.4187441
  34.9409650  63.6080011  79.5051621  35.2498474  62.9107130  79.6890099
  29.0225474  67.4402277  75.8784113  29.2985208  66.7221190  75.4661681
  29.6224143  68.0387197  75.6705219  29.1518739  67.4222648  75.7864875
  38.5216914  63.3552954  79.0533209  37.9091227  63.8423356  79.4386941
  38.6181088  62.6796444  79.5970860  38.4454811  63.3271262  79.1912067
  32.5235995  65.1115795  74.1530708  32.9779741  65.2826355  74.8778553
  32.9976040  64.4983905  73.7528484  32.6604315  65.0466680  74.2004470
  29.8649015  71.8158329  75.2575716  30.6091060  72.2032605  75.4958666
  30.0109711  70.9715754  75.4216203  29.9959600  71.7488802  75.3169685
  31.7828590  63.6108588  80.2907577  30.9364635  63.7831396  80.1648927
  31.7799722  62.8057932  80.6273405  31.6575740  63.5169617  80.3218704
  34.7810390  68.2820357  74.2195389  34.2533409  68.3649101  73.5301098
  35.2406098  69.0238228  74.2160033  34.7712241  68.4041019  74.1170084
  26.7743455  66.5522877  69.2436284  26.4256260  67.2042602  69.7067833
  26.2939901  66.5379990  68.5160155  26.6513699  66.6465930  69.2047375
  34.3347473  76.8523920  73.3505046  35.0581671  77.3182033  73.2069619
  33.8948064  76.9197530  72.6002643  34.3763165  76.9307757  73.2189827
  27.3516957  64.3865306  81.9298312  27.3915328  64.8874512  82.6433019
  26.5266621  64.4775699  81.6604235  27.2356483  64.4747122  81.9948850
  27.1467364  69.1781407  74.7562328  27.2870325  69.6753871  75.4590970
  27.6449897  68.4767701  74.8976542  27.2408445  69.1483386  74.8813908
  27.1767586  70.0448518  72.0854905  27.8112666  70.6408943  72.0204367
  27.2593197  69.7451976  72.9000775  27.2824137  70.0889426  72.1957992
  28.7546569  65.9762493  72.0600347  29.0762410  65.4965576  71.4059610
  29.0173513  66.7862139  71.8691159  28.8412595  66.0252391  71.9355839
  23.6820574  72.2416359  75.3544451  24.1912804  72.8380866  75.7355757
  24.1554847  71.9742332  74.6720871  23.8263950  72.2902174  75.3098974
  32.5899947  61.8349787  77.8314403  31.9468265  61.6847433  78.3999542
  32.2499354  61.5892132  77.0663508  32.4445024  61.7761910  77.8017419
  26.0411106  68.8772617  78.2217632  25.3223095  69.2936750  78.4890495
  26.4123468  69.4426856  77.6709270  25.9903038  69.0221899  78.1800439
  31.8157680  67.9170617  73.5591011  31.2222520  68.2387614  73.0075578
  31.8532958  67.0711713  73.3512117  31.7332069  67.8394945  73.4473782
  38.7751481  61.3683509  81.0919098  38.2682346  60.6612649  81.0240275
  39.5718915  61.0376698  81.2220174  38.8178720  61.2156661  81.1018093
  34.6915497  67.8750122  76.9892761  34.4629190  67.8982823  76.1471120
  34.9513573  67.0507589  77.1087772  34.6961685  67.7566202  76.8817959
  27.7460259  66.4126668  78.2846957  28.2217626  66.7743748  77.6497138
  27.2448859  67.0683136  78.5647100  27.7425618  66.5620857  78.2323698
  29.7886913  68.5567868  71.6520341  30.1685877  68.5747497  70.8671456
  29.0479509  69.0021857  71.5311188  29.7355750  68.6249642  71.5183909
  37.4172203  66.8650059  77.2395920  37.4166430  66.7098716  78.0980196
  37.2128383  67.7113046  77.1837305  37.3871981  66.9670680  77.3583859
  30.5871667  75.3945374  73.0429131  29.7782989  75.0712048  72.9962441
  31.0946576  74.6878596  72.9757380  30.5421333  75.2426690  73.0259425
  33.7845324  59.7043309  83.4649601  32.9791287  59.5941039  83.7817439
  33.6552059  59.8055765  82.6079467  33.6465456  59.7026979  83.3857641
  29.7806083  64.7829396  74.3347973  30.6021778  64.9527709  74.0929667
  29.3175734  64.9376657  73.6114270  29.8337246  64.8311129  74.1919617
  37.7476039  82.0708184  69.2436284  37.3988843  82.7227910  69.7067833
  37.2672485  82.0565298  68.5160155  37.6246283  82.1651238  69.2047375
  17.2442470  16.8441578  63.1030370  17.2136474  17.6986215  63.2748639
  17.8423818  16.5436871  63.6616513  17.3279628  16.9258075  63.2105172
   4.8283294  25.4679947  63.6220532   4.0766194  25.0895486  63.3936577
   5.2769306  25.4998381  62.8739342   4.7832961  25.4165554  63.4778034
  10.2808254  25.8905317  59.0506079   9.9459623  26.5682238  58.6150301
  10.7935125  25.5010628  58.4622951  10.3073835  25.9329895  58.8992870
   9.8212545  27.8419586  64.9917191  10.2051925  28.4106484  64.4521966
   9.7571687  27.1169096  64.5123007   9.8685973  27.8195049  64.8411053
   6.4068050  25.4798339  65.8883304   6.5078413  24.6698693  66.1980432
   5.8109796  25.3855286  65.2582983   6.3340589  25.3463368  65.8409543
  15.0659044  19.4193880  61.3748680  14.9498570  20.1701567  61.8040818
  15.8614931  19.1617834  61.6244767  15.1663634  19.4928727  61.4752771
   6.2468790  30.3975929  67.2898160   6.8906245  30.8389093  67.6794319
   6.5725046  29.5929355  67.2028419   6.3900619  30.3441123  67.3343638
   6.9489370  23.4087904  62.6618022   7.2705211  23.9493111  62.0579330
   7.5961466  22.8384675  62.7940312   7.0915425  23.4047079  62.5925057
   8.9991078  15.4103898  62.7452409   9.6971242  15.5892026  63.2373872
   9.3143410  14.8874238  62.1222798   9.1486415  15.3597671  62.7254419
   9.1879013  21.7974343  62.7332200   9.6272649  21.1891444  63.1786973
   9.0383676  21.4181717  61.9617665   9.2300479  21.6512815  62.6851368
  12.7888350  20.1501525  59.6862970  12.7039645  21.0062491  59.8312538
  13.2772733  19.8745849  60.3545129  12.8477247  20.2358846  59.8065051
  13.7206783  16.7686319  61.1860705  13.1918254  16.9845952  61.8458011
  14.2431803  17.4622457  61.1061674  13.7195236  16.9029456  61.2716304
  19.1754836  22.3432623  66.5593749  18.3452539  22.5543267  66.7227166
  19.1264088  21.5169678  66.2836033  19.0461571  22.2522230  66.5431115
   5.6106391  20.6649536  59.9868173   5.0263606  21.1699567  60.3934037
   5.2076486  20.4391923  59.2464765   5.4645695  20.7057784  59.9373198
  10.0683605  16.9115188  58.4637093  10.3079609  17.1193172  57.6512436
  10.3899446  16.1072696  58.5726038  10.1520763  16.8229289  58.3597646
   4.0194617  26.8960473  66.9412124   4.7215196  26.3812462  66.9984881
   3.9392100  27.2234624  67.7458999   4.1118377  26.8674699  67.0684916
  13.3938980  19.1858701  65.9456062  14.1496495  19.6190215  65.9844971
  13.5001304  18.5363470  66.5190698  13.5209151  19.1536184  66.0354088
  16.4319151  23.0131978  66.6958465  15.9954383  23.0168720  67.4517436
  16.0982067  23.6937477  66.2638042  16.3181771  23.1144434  66.7439298
   3.2792987  14.5253075  57.5197217   2.5651164  14.2391255  57.9319650
   3.7636956  14.8649701  58.1603605   3.2452350  14.5334725  57.6752852
  19.5663497  19.7312898  65.5878102  20.2279931  19.1703566  65.4874011
  18.9254909  19.2364928  65.9130793  19.5692365  19.5749307  65.6210442
  10.4540305  23.0283029  57.8959025  10.8691454  22.6968053  57.2043521
   9.6232235  22.7951931  57.7679162  10.3928314  22.9454285  57.7749873
  15.8528328  20.7478280  65.3290091  16.0883917  20.8923479  64.5016942
  16.0017892  21.5120688  65.7221605  15.9094131  20.8817335  65.2653695
  17.6818785  19.5879946  63.1659695  18.0127002  20.1207586  62.5599790
  18.2551873  19.6418834  63.8221646  17.8152464  19.6749515  63.1737476
  12.8950674  17.4344849  63.8483275  12.9897528  18.1734143  64.3022900
  12.2709517  17.0062324  64.2817839  12.8159704  17.4806169  63.9791422
  13.1473695  19.2793589  57.0820227  13.0653858  19.3495776  57.9475214
  13.7853416  19.8423332  56.8903968  13.2293533  19.3732560  57.1810176
  18.7898136  14.8290443  64.6699856  18.5334701  14.0170384  64.4797739
  19.6327450  14.8368010  64.4430044  18.8764162  14.7102440  64.6084674
  10.2513805  19.3014043  60.0928833  11.0654444  19.5928936  59.9811605
  10.1872947  18.6473905  59.5187126  10.3616544  19.2479238  59.9917671
   6.1221714  22.7735560  65.2201145   6.7595661  22.5347308  65.7652939
   6.5476785  22.9772719  64.4854306   6.2797880  22.7686570  65.1918303
   6.7624529  17.9937850  59.5576035   7.1469681  17.7745557  60.3092580
   6.5136149  18.8200795  59.6877111   6.7826601  18.0835996  59.6877111
  23.1961508  18.4077488  69.8955048  23.1286009  18.4273448  69.0257634
  23.1817171  19.2507816  70.1210718  23.1840265  18.5351223  69.8007525
   2.2648942  23.5965846  63.9289375   1.4387060  23.8427583  63.8023654
   2.3260933  23.5177927  64.7951433   2.1523109  23.6210795  64.0378320
   7.0447771  26.2142726  61.6308405   7.3346070  25.8231707  60.9067632
   7.7751252  26.3959431  62.0713680   7.1954655  26.1836540  61.5891212
  20.9820126  17.1821875  68.1701642  21.5328047  16.5489944  68.4098734
  20.9664241  17.7137267  68.8617146  21.0605322  17.1670823  68.3080500
   4.9853687  28.1910108  64.6968555   4.7653982  27.9007463  65.4895222
   4.7648209  27.5325063  64.1686467   4.9201281  28.0509817  64.7357464
   7.1521643  29.5639498  63.4799247   7.8045701  29.0315941  63.7090273
   6.4547251  29.2108151  63.8667121   7.1452361  29.4329021  63.5711415
   4.1002907  21.9178676  62.8866622   4.8548875  22.2991715  63.1002084
   3.5073520  22.3689820  63.3413318   4.1239621  22.0407503  62.9849500
  15.1461561  21.8843912  62.8230226  15.7119594  22.5437122  62.7388769
  14.4989464  22.2293610  63.2946629  15.1340317  22.0325854  62.8802983
  11.6168139  24.8282697  62.2467306  11.3754815  24.0950557  61.8394371
  11.7969472  25.3769554  61.5933639  11.6075763  24.8005088  62.0897529
   6.8467460  20.1191256  63.6588228   6.6510242  20.7265991  63.0648531
   7.0701805  19.4259200  63.1779902   6.8502101  20.1068782  63.5004309
  17.0797021  18.5477780  66.4427023  16.9930996  18.7033206  67.2961802
  16.6247501  19.1915855  66.0686428  17.0000278  18.6653535  66.5134130
  14.8470886  22.5771886  68.8539364  14.7085245  23.2752932  69.3588106
  14.0670884  22.4220543  68.4975546  14.7114113  22.6572053  68.8765638
  16.3424259  21.9350140  59.6155863  15.9631068  21.1487278  59.6085152
  15.6790504  22.4836997  59.4727507  16.1882734  21.8994964  59.5936660
   9.1671167  25.4863659  63.4544689   9.9321058  25.2173303  63.1327353
   9.0649257  25.0013669  64.1714752   9.2652662  25.3753224  63.5124517
  11.6889828  22.5175843  55.4344639  12.4562813  22.5775968  55.0250490
  11.2421136  21.9456284  54.9500957  11.7363255  22.4412419  55.3022349
  14.5884358  24.1795631  59.9507549  14.6704195  24.9862617  59.6269000
  15.0734100  24.1991590  60.6748322  14.6721515  24.3016293  60.0094447
  10.2242450  18.7290402  62.9198962  10.7657996  18.2260783  63.3837583
  10.5389010  18.6755597  62.1088448  10.3506848  18.6469823  62.8682775
   8.3928900  24.1207754  60.2038990   8.4621720  23.2622292  60.3431991
   9.1717355  24.3379634  59.8758015   8.5181750  24.0260617  60.1756148
  12.7836388  26.5445455  64.4175484  12.3916179  26.2412170  63.6998350
  12.9389460  27.3814545  64.2280438  12.7489978  26.6229292  64.2831981
  12.9476063  23.1095444  64.3581514  12.5890717  23.2810087  65.1345547
  12.4614773  23.5708649  63.8009513  12.8234759  23.2034415  64.3906783
   7.7364428  18.7894609  56.8981749   8.0256953  19.5659492  57.1725323
   7.8236227  18.2783341  57.5996248   7.7918684  18.8286527  57.0424247
  13.5526693  25.9480948  67.8505518  13.3546382  26.4371762  67.1561730
  12.9314404  26.1522189  68.4289652  13.4314257  26.0497486  67.8328741
   7.6134671  17.7165844  62.1915762   8.3576716  18.1040121  62.4298712
   7.7595368  16.8723270  62.3556250   7.7445256  17.6496317  62.2509732
  12.5296047  14.1827872  61.1535436  12.0019065  14.2656616  60.4641144
  12.9891755  14.9245744  61.1500080  12.5197897  14.3048535  61.0510131
   4.5229112  12.4530392  56.1776331   4.1741916  13.1050117  56.6407880
   4.0425558  12.4387505  55.4500202   4.3999356  12.5473445  56.1387422
  12.0833129  22.7531436  60.2845093  12.8067328  23.2189549  60.1409666
  11.6433720  22.8205045  59.5342690  12.1248822  22.8315273  60.1529874
   4.9253243  15.9456033  59.0194952   5.5598323  16.5416458  58.9544414
   5.0078854  15.6459491  59.8340822   5.0309794  15.9896941  59.1298039
   6.5032226  11.8770009  58.9940394   6.8248067  11.3973091  58.3399656
   6.7659170  12.6869655  58.8031206   6.5898251  11.9259907  58.8695886
  12.3436979  26.8152141  60.4443154  11.6266289  26.6413003  59.9790391
  12.9943717  26.5804713  59.9118640  12.3338830  26.7547933  60.2972372
  14.9284950  15.6916729  64.1884459  14.2576140  16.2346432  64.0597524
  15.6224701  16.1611585  63.9466154  14.9313818  15.8415000  64.1339987
   8.9771684  27.8313441  69.4196217   8.7537338  27.0732271  69.7880243
   8.4881527  27.8611462  68.6976657   8.8715133  27.7235666  69.3672958
   7.6250141  28.0513899  66.8733302   7.2110540  27.3888030  66.4837143
   8.3097515  28.1991758  66.3528996   7.6648513  27.9754558  66.7389799
  10.9915435  27.2103985  67.6256918  10.5931718  27.3206255  66.8577739
  10.3766655  27.4186051  68.2083478  10.8414324  27.2577553  67.5988218
   9.5643337  13.8178132  60.4931058   8.9708176  14.1395129  59.9415625
   9.6018615  12.9719228  60.2852164   9.4817726  13.7402461  60.3813829
  18.7257278  21.7855951  61.0100009  19.1090884  22.5347308  61.2398106
  17.9301391  22.0321771  60.7511998  18.6651060  21.9325645  61.0057583
   7.5372569  14.4575383  58.5860388   7.9171534  14.4755012  57.8011503
   6.7965165  14.9029372  58.4651235   7.4841407  14.5257158  58.4523956
   8.3357323  21.2952889  59.9769178   7.5268646  20.9719563  59.9302487
   8.8432232  20.5886111  59.9097427   8.2906990  21.1434206  59.9599472
  11.5429130  23.9093028  66.8450460  12.0140308  24.6233290  67.0140445
  11.8789309  23.3091778  67.3810329  11.6624245  23.9264492  66.9482836
  28.2175053  32.3626886  63.1030370  28.1869058  33.2171523  63.2748639
  28.8156402  32.0622179  63.6616513  28.3012211  32.4443383  63.2105172
  21.4174738  31.4502537  67.8583300  20.5612634  31.6111036  67.9092417
  21.4642392  30.5794601  67.8788361  21.2973850  31.3453339  67.8689366
  15.8015878  40.9865255  63.6220532  15.0498777  40.6080794  63.3936577
  16.2501889  41.0183689  62.8739342  15.7565545  40.9350862  63.4778034
  24.7268455  37.7189063  77.4643756  25.4335222  37.2241094  77.5930691
  24.9156390  38.1598145  76.7346414  24.8596360  37.7107413  77.3752802
  21.2540838  41.4090625  59.0506079  20.9192206  42.0867546  58.6150301
  21.7667708  41.0195936  58.4622951  21.2806419  41.4515203  58.8992870
  20.7945129  43.3604893  64.9917191  21.1784508  43.9291792  64.4521966
  20.7304270  42.6354404  64.5123007  20.8418556  43.3380357  64.8411053
  24.2626559  33.5094581  70.5014952  24.8082519  34.1879668  70.5608922
  24.2043435  33.3682042  69.6416533  24.3342473  33.5886583  70.3827013
  17.3800634  40.9983647  65.8883304  17.4810997  40.1884001  66.1980432
  16.7842379  40.9040594  65.2582983  17.3073173  40.8648676  65.8409543
  26.0391628  34.9379188  61.3748680  25.9231154  35.6886874  61.8040818
  26.8347514  34.6803142  61.6244767  26.1396217  35.0114035  61.4752771
  17.2201374  45.9161237  67.2898160  17.8638829  46.3574401  67.6794319
  17.5457629  45.1114663  67.2028419  17.3633202  45.8626431  67.3343638
  10.5765678  37.0203934  65.5135638  10.3415863  36.1871586  65.4067907
  10.7151319  37.3008600  64.6996839  10.5621341  36.9387437  65.3777993
  12.8755766  29.1889665  68.4119946  12.2560797  28.5982312  68.2429961
  12.7739629  29.7801100  67.7784269  12.7693441  29.1893747  68.2924935
  17.9221953  38.9273211  62.6618022  18.2437794  39.4678419  62.0579330
  18.5694050  38.3569983  62.7940312  18.0648008  38.9232387  62.5925057
  19.9723661  30.9289206  62.7452409  20.6703826  31.1077334  63.2373872
  20.2875994  30.4059546  62.1222798  20.1218999  30.8782978  62.7254419
  12.6024899  32.7341946  70.6563515  12.4783596  33.3204392  71.2913334
  13.2543183  32.2402142  70.9575790  12.6798548  32.7480751  70.7949444
  20.1611597  37.3159651  62.7332200  20.6005232  36.7076752  63.1786973
  20.0116260  36.9367025  61.9617665  20.2033062  37.1698123  62.6851368
  17.6283240  35.9103663  69.9351026  18.2732242  35.4176106  69.6161974
  17.8685017  36.0528450  70.7617104  17.7593825  35.8581105  70.0100559
  20.1669331  38.7558569  69.5857918  20.4492574  37.9609975  69.3644674
  20.8955491  39.2339157  69.6062979  20.3158895  38.7093166  69.5560934
  23.7620933  35.6686833  59.6862970  23.6772228  36.5247799  59.8312538
  24.2505317  35.3931157  60.3545129  23.8209831  35.7544154  59.8065051
  25.3526933  22.2867126  65.0723294  25.0380374  22.9770605  65.5043716
  24.8353874  22.2311908  64.3708795  25.2291403  22.3802015  65.0320243
  24.6939367  32.2871627  61.1860705  24.1650838  32.5031260  61.8458011
  25.2164386  32.9807765  61.1061674  24.6927819  32.4214764  61.2716304
  30.1487419  37.8617931  66.5593749  29.3185123  38.0728575  66.7227166
  30.0996672  37.0354986  66.2836033  30.0194155  37.7707538  66.5431115
  16.5838974  36.1834844  59.9868173  15.9996190  36.6884875  60.3934037
  16.1809069  35.9577231  59.2464765  16.4378278  36.2243092  59.9373198
  12.1383003  41.8989605  66.7891844  11.6550581  42.6240094  66.7651428
  12.9506321  42.1965735  66.9002002  12.1873751  42.0491958  66.8019123
  18.2097157  40.6921785  69.3941659  17.6924099  40.3329200  68.7902967
  18.9071548  40.1683960  69.4047725  18.2362738  40.5619473  69.3071917
  21.8660749  41.1416600  75.3557832  21.9544095  40.9542740  76.2036042
  22.2950462  40.4954029  74.9562678  21.9422851  41.0179607  75.4229583
  19.4331209  40.4247760  74.3375494  18.8702044  40.0120369  74.8615155
  20.1952232  40.3500665  74.7568637  19.4625657  40.3525160  74.4768494
  21.0416189  32.4300496  58.4637093  21.2812192  32.6378479  57.6512436
  21.3632030  31.6258004  58.5726038  21.1253347  32.3414597  58.3597646
  16.3506479  24.3593891  62.3096631  17.1052447  24.7272209  62.0713681
  16.1734014  24.7333446  63.0775811  16.4360957  24.4692079  62.3881520
  14.9927200  42.4145781  66.9412124  15.6947779  41.8997770  66.9984881
  14.9124683  42.7419932  67.7458999  15.0850961  42.3860007  67.0684916
  29.6441378  30.5088332  70.3544171  28.8069799  30.5790519  70.5891765
  29.6129609  30.5112827  69.4818473  29.5159660  30.5198559  70.2603718
  14.7063544  26.7664210  59.0074744  14.5239117  26.9836091  58.1815737
  15.5689157  26.8803223  59.0633359  14.8068133  26.8154108  58.8929231
  14.3177976  38.6052133  66.4497732  15.1566875  38.8375065  66.4971494
  14.3489745  37.7356444  66.3804767  14.4459693  38.5109079  66.4462377
  14.9430679  39.0253008  70.7511038  15.4828904  38.8824139  71.4214410
  14.2600625  39.4249759  71.1195064  14.9222833  39.0632679  70.9045459
  20.3863263  23.7690621  62.0423768  21.1149423  23.5906576  61.5961924
  20.4758156  24.6108701  62.2530946  20.5069925  23.8674500  62.0077286
  24.3671564  34.7044008  65.9456062  25.1229079  35.1375523  65.9844971
  24.4733888  34.0548778  66.5190698  24.4941734  34.6721492  66.0354088
  27.4051735  38.5317286  66.6958465  26.9686967  38.5354028  67.4517436
  27.0714650  39.2122785  66.2638042  27.2914355  38.6329742  66.7439298
  21.9780808  40.5725619  78.0201615  22.7621225  40.6856466  78.3857357
  21.7777403  39.7466756  78.2160301  22.0646834  40.4672338  78.1036001
  10.3467824  35.2453299  70.9045459  10.0806239  34.4292415  71.0636449
  10.3606388  35.2906454  70.0340975  10.3092546  35.1310203  70.7998941
  27.3249218  25.5731114  68.9387893  27.9675126  25.6429218  69.5249808
  27.5772238  24.9060336  68.4367435  27.4571350  25.4857462  68.9515172
  14.2525571  30.0438383  57.5197217  13.5383748  29.7576563  57.9319650
  14.7369539  30.3835009  58.1603605  14.2184934  30.0520033  57.6752852
  22.1351202  42.4835721  71.6668071  21.3366447  42.2435221  71.9241939
  22.5837213  42.5350114  72.4135119  22.0825813  42.4558112  71.8152995
  30.5396081  35.2498206  65.5878102  31.2012515  34.6888874  65.4874011
  29.8987493  34.7550236  65.9130793  30.5424948  35.0934615  65.6210442
  21.4272889  38.5468337  57.8959025  21.8424037  38.2153361  57.2043521
  20.5964818  38.3137239  57.7679162  21.3660897  38.4639593  57.7749873
  10.7561237  36.0312078  68.1857203  10.5736811  36.0058964  67.3329496
  11.4910906  36.5011016  68.2246112  10.8375301  36.0973440  68.0655122
  26.8260912  36.2663588  65.3290091  27.0616501  36.4108787  64.5016942
  26.9750475  37.0305996  65.7221605  26.8826715  36.4002642  65.2653695
  13.8206989  32.7497081  74.6939312  14.5446961  32.7350112  75.1804207
  13.9223126  33.4592436  74.1961280  13.9425198  32.8521784  74.6918099
  28.6551368  35.1065254  63.1659695  28.9859585  35.6392894  62.5599790
  29.2284456  35.1604142  63.8221646  28.7885047  35.1934823  63.1737476
  21.1951938  36.2296166  79.5588259  20.4024919  36.5439677  79.7440879
  21.3100866  36.4447634  78.7209044  21.0947349  36.3080002  79.4626594
  23.8683257  32.9530157  63.8483275  23.9630112  33.6919451  64.3022900
  23.2442101  32.5247632  64.2817839  23.7892288  32.9991477  63.9791422
  22.1235731  36.1316369  74.4973556  22.6974593  35.4943613  74.6522120
  22.0450535  36.1320452  73.6283213  22.1968966  36.0381481  74.3919967
  10.7232148  32.9105579  68.3356270  11.3005650  32.7742030  68.9748515
  10.0246209  32.4541363  68.5901854  10.7053169  32.8227845  68.4678560
  24.1206279  34.7978896  57.0820227  24.0386441  34.8681084  57.9475214
  24.7585999  35.3608640  56.8903968  24.2026116  34.8917868  57.1810176
  17.4799450  34.5639634  66.5494753  17.2218694  33.7311369  66.5226053
  17.5347933  34.7897247  65.7087254  17.4499228  34.4737406  66.4214890
  22.5600500  26.6668085  66.6498846  21.8556827  26.1777271  66.8082765
  22.6085474  26.6790560  65.7787290  22.4630552  26.5957733  66.5438186
  16.4534162  32.1177397  67.0359648  15.8783753  32.2769565  67.6723609
  16.0769838  31.4812806  66.5728099  16.3136974  32.0475210  67.0614206
  20.1207451  30.5900746  71.8952026  19.7321883  30.1654964  71.2404218
  19.4562149  30.8382896  72.4029053  19.9654378  30.5639467  71.8739894
  29.7630720  30.3475751  64.6699856  29.5067285  29.5355692  64.4797739
  30.6060034  30.3553318  64.4430044  29.8496745  30.2287748  64.6084674
   6.1990981  31.7617472  65.0504089   6.2851233  31.3849340  65.8317619
   6.8266778  31.3877917  64.5724047   6.3047532  31.6502954  65.0949566
  23.9433812  24.2875375  69.4076011  24.3244324  23.6053546  69.7943885
  23.1397096  23.9984977  69.2251675  23.8810274  24.1442423  69.4380067
  21.2246389  34.8199351  60.0928833  22.0387028  35.1114244  59.9811605
  21.1605530  34.1659213  59.5187126  21.3349128  34.7664545  59.9917671
  27.4455879  37.5025347  74.5058409  27.2094516  36.6713412  74.3870470
  28.0899108  37.4510954  75.0913253  27.5050550  37.3723035  74.5744303
  17.0954297  38.2920868  65.2201145  17.7328244  38.0532616  65.7652939
  17.5209369  38.4958027  64.4854306  17.2530463  38.2871878  65.1918303
  11.7866940  40.5309205  69.1035449  11.8271085  40.8024056  68.2755229
  12.3461464  41.0551113  69.5193237  11.8750285  40.6484960  69.0427337
  17.7357112  33.5123158  59.5576035  18.1202265  33.2930865  60.3092580
  17.4868733  34.3386103  59.6877111  17.7559185  33.6021304  59.6877111
  28.4692300  37.2869796  70.5686703  28.1638117  38.0197852  70.9300019
  27.7498515  36.8807725  70.2879490  28.3179642  37.3351529  70.5799841
  19.4775769  38.7693291  66.8994932  19.5514777  38.6068463  67.7536782
  20.2945275  38.9583480  66.6555413  19.6092128  38.7730033  66.9892957
  34.1694092  33.9262796  69.8955048  34.1018592  33.9458755  69.0257634
  34.1549754  34.7693124  70.1210718  34.1572848  34.0536531  69.8007525
  13.2381526  39.1151154  63.9289375  12.4119643  39.3612891  63.8023654
  13.2993517  39.0363235  64.7951433  13.1255693  39.1396103  64.0378320
  15.4557550  25.1820095  64.8884815  14.5879975  25.2542694  64.9542425
  15.7432754  25.9842174  65.0772790  15.3697298  25.3114242  64.9259582
  24.5790438  25.3297954  73.2196137  25.3244030  25.1407764  72.8059563
  24.1627743  25.8556192  72.6609994  24.6275413  25.3800099  73.0760710
  18.0180355  41.7328034  61.6308405  18.3078653  41.3417015  60.9067632
  18.7483836  41.9144739  62.0713680  18.1687239  41.7021848  61.5891212
  31.9552709  32.7007183  68.1701642  32.5060631  32.0675252  68.4098734
  31.9396825  33.2322575  68.8617146  32.0337906  32.6856131  68.3080500
  18.6075100  36.5345780  72.7161536  18.1086794  37.2461548  72.7946424
  19.4175324  36.8546446  72.6779698  18.6531207  36.6872628  72.7218104
  15.9586270  43.7095416  64.6968555  15.7386566  43.4192771  65.4895222
  15.7380792  43.0510371  64.1686467  15.8933865  43.5695125  64.7357464
  14.8703218  35.7968733  66.9624256  14.5816466  35.1706204  67.4969984
  15.7386566  35.7389020  67.0288937  14.9563470  35.6956277  67.0515211
  25.6581115  30.9403516  67.2806238  25.3145881  30.2193851  67.6313488
  25.7574158  30.7317367  66.4384597  25.6223158  30.8027719  67.2077918
  18.1254226  45.0824806  63.4799247  18.7778284  44.5501249  63.7090273
  17.4279835  44.7293459  63.8667121  18.1184944  44.9514329  63.5711415
  15.0735491  37.4363984  62.8866622  15.8281459  37.8177023  63.1002084
  14.4806104  37.8875128  63.3413318  15.0972205  37.5592811  62.9849500
  26.1194144  37.4029220  62.8230226  26.6852177  38.0622430  62.7388769
  25.4722048  37.7478918  63.2946629  26.1072901  37.5511162  62.8802983
  16.3933718  38.6072545  68.2606737  15.8714471  38.7472837  68.9458602
  16.7807738  37.8483210  68.4508854  16.3737419  38.5158069  68.3907813
  13.3824902  28.6578354  62.3301692  13.0949697  28.2879624  61.5933639
  14.0695370  29.1273209  62.0685397  13.4413799  28.6725323  62.1816767
  22.5900723  40.3468004  62.2467306  22.3487399  39.6135865  61.8394371
  22.7702055  40.8954861  61.5933639  22.5808347  40.3190396  62.0897529
  17.8200043  35.6376564  63.6588228  17.6242826  36.2451299  63.0648531
  18.0434389  34.9444508  63.1779902  17.8234684  35.6254090  63.5004309
  16.2178573  32.5231302  63.7769096  16.9401225  32.6872460  63.3172902
  15.7386566  33.2440967  63.6708436  16.2542304  32.6529532  63.6934710
  24.1772081  28.8595101  69.1565781  23.3383181  28.8856380  68.9204045
  24.2476448  29.5065836  69.7371128  24.0640474  28.9591227  69.2074898
  13.8686190  34.9289375  72.8823236  14.3807287  35.2073628  72.2331996
  13.5822533  35.6678669  73.2486049  13.9021053  35.0791728  72.8413114
  28.0529605  34.0663088  66.4427023  27.9663579  34.2218514  67.2961802
  27.5980085  34.7101163  66.0686428  27.9732861  34.1838843  66.5134130
  10.9553096  29.4359566  63.1786973  11.0569233  30.2385728  63.5067948
  11.7508983  29.2346902  62.8810053  11.0881002  29.5245465  63.1822328
  11.7716828  29.5506745  70.9208094  11.6302320  28.6990685  71.0452602
  12.0557392  29.5935405  70.0970300  11.7924674  29.4306495  70.8175718
  21.9255421  31.3873835  65.0652582  21.6790135  31.3069586  65.8989371
  22.2540544  30.6027303  64.8715110  21.9376664  31.2600100  65.1600106
  25.8203470  38.0957194  68.8539364  25.6817829  38.7938240  69.3588106
  25.0403467  37.9405851  68.4975546  25.6846696  38.1757361  68.8765638
  24.1581555  34.3953570  75.1061745  24.1529593  33.5233386  75.1104172
  24.8642549  34.5941739  74.6331201  24.2626559  34.2957444  75.0368781
  17.8852448  34.1230553  74.4775566  18.0295824  34.7031762  73.8418676
  18.2328097  34.5006850  75.1825420  17.9579909  34.2651257  74.4874561
  20.0572365  33.3220722  72.2600697  19.3095679  33.5151736  71.8548975
  20.2113891  32.4965941  72.0224818  19.9694793  33.2285833  72.1646103
  16.9580203  42.3133325  71.3436592  17.1069767  41.7536241  70.6909997
  17.7380205  42.3925327  71.7269111  17.0954297  42.2418891  71.3033542
  27.3156842  37.4535448  59.6155863  26.9363651  36.6672586  59.6085152
  26.6523088  38.0022305  59.4727507  27.1615317  37.4180272  59.5936660
  19.4833504  42.4847968  72.6221083  19.4077175  41.8156779  73.1771871
  19.4123363  43.1865756  73.1361749  19.4614111  42.4892875  72.7797931
  20.2974142  27.2171273  73.1496101  20.7546756  27.9495247  73.2768893
  20.3730471  26.7937738  73.9083357  20.3765112  27.2628511  73.2797177
  24.7701468  20.3961148  67.0189944  24.8885036  20.8537611  66.2857247
  24.5963644  19.5906409  66.7326161  24.7620639  20.3454920  66.8690877
  20.1403751  41.0048967  63.4544689  20.9053642  40.7358611  63.1327353
  20.0381841  40.5198977  64.1714752  20.2385246  40.8938532  63.5124517
  18.1756520  29.2073376  69.9937925  17.3852595  29.0264837  70.3155261
  18.5717143  28.4300329  69.9768219  18.1173397  29.0660837  70.0390473
  22.6622411  38.0361151  55.4344639  23.4295396  38.0961276  55.0250490
  22.2153720  37.4641592  54.9500957  22.7095838  37.9597726  55.3022349
  23.5600207  36.8415807  67.7197371  22.8845208  36.6101039  68.2210758
  23.5692583  36.2336990  67.0939476  23.4618711  36.7174732  67.7013523
  20.6894351  31.6833636  74.4761424  20.6253492  32.5443592  74.3481561
  20.8291538  31.3665629  73.6756975  20.7009821  31.7633802  74.3389637
  25.5616941  39.6980939  59.9507549  25.6436779  40.5047925  59.6269000
  26.0466683  39.7176898  60.6748322  25.6454099  39.8201601  60.0094447
  19.3713444  34.3765775  68.6177627  18.9475694  34.5770274  67.8816645
  19.1958300  33.5294623  68.7301927  19.2824325  34.2814556  68.5251317
  18.8725138  45.8916288  71.0799084  19.3621068  45.1927077  70.8974749
  18.3009370  45.5940158  71.6675141  18.8609668  45.7442512  71.1400125
  14.6595889  34.8717826  64.0505599  14.8160509  34.8064629  64.9061591
  14.9996483  35.6466379  63.8384279  14.7329124  34.9767024  64.1460193
  21.1975034  34.2475710  62.9198962  21.7390580  33.7446091  63.3837583
  21.5121593  34.1940905  62.1088448  21.3239431  34.1655131  62.8682775
  25.0692141  38.4578357  80.0325875  25.8827007  38.1863506  80.1931007
  24.9087108  38.1585897  79.2286071  25.1662090  38.3733283  79.9371281
  19.3661484  39.6393061  60.2038990  19.4354304  38.7807600  60.3431991
  20.1449939  39.8564942  59.8758015  19.4914334  39.5445925  60.1756148
  22.3464303  29.1412014  72.9721263  22.5606273  28.5022929  72.4184617
  21.7298203  29.5857838  72.5429125  22.2869633  29.1122158  72.8271694
  23.7568971  42.0630763  64.4175484  23.3648763  41.7597478  63.6998350
  23.9122044  42.8999853  64.2280438  23.7222561  42.1414599  64.2831981
  11.2330151  32.0552777  64.3666366  11.6129116  32.4737322  63.7026634
  10.6585516  32.6366232  64.6735210  11.2041476  32.2030636  64.3143107
  24.5103391  30.7501080  73.9104570  23.6980073  30.4426970  73.9917743
  24.9693326  30.2700080  74.4747282  24.4583776  30.6337572  74.0059164
  23.9208646  38.6280752  64.3581514  23.5623301  38.7995394  65.1345547
  23.4347357  39.0893957  63.8009513  23.7967343  38.7219723  64.3906783
  21.7379032  22.2511950  67.9608606  20.8672590  22.2250671  67.9141915
  21.9919373  22.0789142  67.1434451  21.6472592  22.2222094  67.8328742
  18.7097012  34.3079917  56.8981749  18.9989536  35.0844799  57.1725323
  18.7968810  33.7968648  57.5996248  18.7651268  34.3471835  57.0424247
  18.7628173  24.2618179  69.4182076  18.2466661  23.5698370  69.5433655
  18.2022101  24.9288956  69.3644675  18.6034686  24.2581436  69.4288142
  20.8320406  24.8011139  71.2474929  20.4452159  24.8260170  72.0288459
  20.3453343  24.2352817  70.7949445  20.7032915  24.7206889  71.2962832
  25.0813385  39.5184648  75.3048715  25.7193106  39.0244843  74.9711171
  24.4387477  39.4462048  74.7200942  25.0807612  39.4343656  75.1691070
  26.8070386  31.3673793  69.8714631  26.3797994  31.2800142  69.1162730
  26.1696439  31.4751569  70.4569475  26.6499993  31.3706453  69.8460072
  25.1367642  40.2104456  71.9454072  25.9260020  39.8593521  72.0656154
  25.3111240  41.0240844  71.6830706  25.2787924  40.2790313  71.9241940
  14.8760952  33.6213182  68.9981861  14.0348959  33.5217056  69.2060755
  15.0850960  34.3908662  69.3496182  14.7825645  33.7205225  69.0809176
  12.3536519  31.2432718  66.8266612  11.9593217  31.3175730  66.0516721
  11.7976636  31.6290665  67.3774973  12.2139332  31.3114493  66.7934271
  23.9901466  24.2214013  66.5070490  24.1951060  24.1536320  67.3527488
  23.6627890  25.0272834  66.4391668  23.9716714  24.3299953  66.6230146
  18.6877617  31.5494581  68.2479458  18.3840755  30.9950569  68.8489866
  17.9857038  31.7286791  67.7607493  18.5393827  31.4939363  68.2649164
  17.7443714  28.8595101  62.8124160  18.0203449  28.1414013  62.4001728
  18.3442384  29.4580020  62.6045266  17.8736979  28.8415471  62.7204921
  16.7495968  38.7644301  72.9551556  16.6416323  38.7746364  73.8213614
  16.9591750  39.5899082  72.7656510  16.7646079  38.8885376  73.0555648
  27.2435154  24.7745777  65.9873256  26.6309468  25.2616179  66.3726988
  27.3399329  24.0989268  66.5310907  27.1673052  24.7464085  66.1252114
  21.2454235  26.5308618  61.0870755  21.6997981  26.7019178  61.8118600
  21.7194281  25.9176729  60.6868531  21.3822555  26.4659503  61.1344517
  14.7669760  36.0156944  70.4173494  14.1757694  36.6566442  70.3876509
  15.5290784  36.4394561  70.3904793  14.7918021  36.1732782  70.4088641
  15.1630383  27.1758942  71.0841511  15.6231865  27.2497871  71.8216635
  15.2086490  27.9740196  70.7341333  15.2380938  27.3053089  71.1414268
  30.8860182  35.8462714  71.4150772  30.9443306  36.2949362  72.1610749
  30.2526649  36.2561526  70.9780852  30.8011477  35.9736448  71.4603320
  24.5259277  41.4666255  67.8505518  24.3278965  41.9557070  67.1561730
  23.9046988  41.6707497  68.4289652  24.4046841  41.5682794  67.8328741
  18.5867255  33.2351152  62.1915762  19.3309300  33.6225429  62.4298712
  18.7327951  32.3908578  62.3556250  18.7177840  33.1681625  62.2509732
  20.5046830  25.0301411  67.2247624  19.6582875  25.2024219  67.0988974
  20.5017963  24.2250755  67.5613452  20.3793980  24.9362440  67.2558751
  21.5745131  28.8076626  68.0909682  21.1005085  28.2818388  68.6014993
  21.9463267  28.2606098  67.5224543  21.5595020  28.6492622  68.0824829
  11.9518161  30.8048132  73.4593228  12.8143774  30.7043841  73.3730557
  11.6209944  30.2242842  72.8978800  12.0303357  30.7039759  73.3638633
  27.8381861  33.8679001  69.5016462  27.5980084  33.0285416  69.5058889
  28.3173869  33.9479168  70.2257236  27.8734045  33.7560401  69.6091265
  23.5028630  29.7013180  61.1535436  22.9751649  29.7841924  60.4641144
  23.9624339  30.4431052  61.1500080  23.4930481  29.8233843  61.0510131
  29.8387048  30.6480458  67.4545721  29.5996818  30.6076293  66.6166506
  30.0020950  31.4951610  67.5811443  29.8277352  30.7672543  67.3499203
  26.4433079  35.0330408  73.3850767  27.1667277  34.5802934  73.2061786
  26.1783041  35.3135073  72.6023094  26.5114352  35.0081376  73.2429482
  15.3119947  29.6290581  70.1203646  14.6873017  29.6408973  69.5129598
  14.9765542  30.1050756  70.7694886  15.1705439  29.7009098  70.1260214
  15.4961696  27.9715700  56.1776331  15.1474500  28.6235425  56.6407880
  15.0158141  27.9572813  55.4500202  15.3731940  28.0658753  56.1387422
  12.0245622  37.6891041  71.5607410  11.4945547  36.9983480  71.6102385
  12.2970716  37.6801227  70.7320119  11.9870345  37.5858173  71.4454826
  23.0565713  38.2716744  60.2845093  23.7799912  38.7374857  60.1409666
  22.6166304  38.3390353  59.5342690  23.0981405  38.3500580  60.1529874
  22.2251868  35.1314286  71.5345782  21.6108861  34.5872336  71.8294417
  22.7419153  34.6178522  71.0551598  22.2107530  34.9750695  71.5070010
  21.4648165  36.2018556  69.2690080  21.0375773  35.5768275  68.8355516
  21.4573110  35.9193478  70.0949087  21.4007306  36.0671337  69.3269908
  14.5810692  31.2383729  72.3378514  14.7404179  30.4827053  72.7430236
  14.4003586  31.7874669  72.9919252  14.5776051  31.2077543  72.4941220
  22.5230995  23.4044965  72.8929304  22.0271557  23.6008639  72.2020870
  23.2800057  23.8037633  72.7218105  22.5617820  23.4922698  72.7649440
  19.7933875  27.0787311  69.4832614  19.8176362  26.5447423  68.7945394
  20.0445348  26.5704619  70.1458205  19.8343794  26.9248214  69.4797259
   7.3041465  34.3618806  68.9175758   7.1984914  34.3165650  68.0527842
   6.5541685  34.7072586  69.1990043   7.1777068  34.4059714  68.8313088
  16.0735197  25.8058129  68.8638359  16.1133569  26.3067335  69.5773066
  15.2484862  25.8968522  68.5944282  15.9574723  25.8939945  68.9288897
  18.2564810  35.3718869  76.9658653  17.4060441  35.5090583  77.1016298
  18.4192938  34.6382647  77.4106355  18.1548674  35.2832970  77.0514252
  17.4949560  32.3218639  71.1612258  16.6641490  32.4892457  70.9547506
  17.4401078  31.9454589  71.9461143  17.3638975  32.2908370  71.2460786
  15.8685604  30.5974230  61.6902375  16.0088565  31.0946694  62.3931017
  16.3668137  29.8960525  61.8316589  15.9626685  30.5676209  61.8153954
  15.8985827  31.4641341  59.0194952  16.5330906  32.0601766  58.9544414
  15.9811438  31.1644799  59.8340822  16.0042378  31.5082249  59.1298039
  28.8768392  33.9956819  71.8881316  29.4686233  34.6354069  71.9199514
  29.3127387  33.2979855  72.1773383  29.0286824  33.9875169  71.9362149
  17.4764810  27.3955317  58.9940394  17.7980651  26.9158399  58.3399656
  17.7391753  28.2054963  58.8031206  17.5630835  27.4445215  58.8695886
  20.7061782  38.4174191  72.5139210  20.1986873  38.9710038  72.9579841
  20.4088429  38.4782481  71.6957985  20.5866667  38.5080502  72.4587667
  22.8723965  26.7827511  71.3563873  23.2979036  26.3300037  70.7447400
  22.2580958  26.2287581  71.6328661  22.8452610  26.6341487  71.3068898
  12.4038815  33.6609182  62.2884498  12.9131044  34.2573689  62.6695804
  12.8773087  33.3935156  61.6060918  12.5482190  33.7094997  62.2439021
  23.3169563  42.3337449  60.4443154  22.5998872  42.1598311  59.9790391
  23.9676300  42.0990021  59.9118640  23.3071413  42.2733241  60.2972372
  21.3118187  23.2542610  64.7654450  20.6686505  23.1040257  65.3339589
  20.9717594  23.0084956  64.0003555  21.1663265  23.1954733  64.7357465
  25.9017534  31.2102037  64.1884459  25.2308724  31.7531739  64.0597524
  26.5957284  31.6796893  63.9466154  25.9046401  31.3600308  64.1339987
  19.9504268  43.3498749  69.4196217  19.7269922  42.5917578  69.7880243
  19.4614111  43.3796770  68.6976657  19.8447717  43.2420974  69.3672958
  26.0645661  27.6657921  67.0974832  26.4173271  27.2387644  67.7720631
  25.2060463  27.5808764  67.2275908  25.9895106  27.5902661  67.2169842
  14.7629346  30.2965441  65.1557679  14.0441335  30.7129573  65.4230542
  15.1341709  30.8619679  64.6049317  14.7121278  30.4414722  65.1140486
  24.0628927  30.9293289  71.0459674  24.0426854  30.7476585  71.8994453
  24.1108128  31.8005308  71.0219258  24.0663568  31.0309828  71.1682969
  22.0075257  37.5180481  76.9708151  21.9671112  36.8730158  76.3853307
  22.8198575  37.4617099  77.2833563  22.1218411  37.4139448  76.9305100
  18.5982725  43.5699207  66.8733302  18.1843123  42.9073338  66.4837143
  19.2830099  43.7177066  66.3528996  18.6381096  43.4939865  66.7389799
  21.9648019  42.7289293  67.6256918  21.5664302  42.8391563  66.8577739
  21.3499238  42.9371359  68.2083478  21.8146908  42.7762861  67.5988218
  20.5375921  29.3363440  60.4931058  19.9440760  29.6580437  59.9415625
  20.5751198  28.4904536  60.2852164  20.4550310  29.2587769  60.3813829
  27.4969721  22.7876333  68.0259145  26.9900586  22.0805472  67.9580322
  28.2937155  22.4569521  68.1560221  27.5396961  22.6349484  68.0358139
  23.4133737  29.2942945  63.9232808  23.1847430  29.3175646  63.0811166
  23.6731813  28.4700412  64.0427819  23.4179925  29.1759025  63.8158006
  17.6952966  31.1477418  73.5257908  17.1831869  30.5398601  73.8842940
  17.5232462  31.8634010  73.9931884  17.5942603  31.1640717  73.6474132
  16.4678500  27.8319491  65.2187004  16.9435866  28.1936571  64.5837185
  15.9667099  28.4875959  65.4987147  16.4643859  27.9813680  65.1663745
  29.6989861  37.3041259  61.0100009  30.0823467  38.0532615  61.2398106
  28.9033975  37.5507079  60.7511998  29.6383644  37.4510953  61.0057583
  21.5722036  29.0701663  75.9660164  22.1293466  28.8415472  75.3338629
  21.2483101  29.8307328  75.6895376  21.6068446  29.1485499  75.8316661
   9.4420745  32.4961859  71.4348760   8.8947464  31.8262504  71.5529628
  10.2313123  32.1291707  71.4992227   9.4772929  32.3426845  71.4617461
  19.2905153  32.1569316  76.9312171  20.0416480  32.4720993  77.2451725
  19.4827730  31.9548487  76.1046093  19.4296567  32.1736698  76.8555567
  18.5105153  29.9760691  58.5860388  18.8904118  29.9940320  57.8011503
  17.7697749  30.4214680  58.4651235  18.4573991  30.0442466  58.4523956
  26.1390443  28.2842882  64.1735967  26.1384670  28.1291539  65.0320243
  25.9346624  29.1305869  64.1177352  26.1090221  28.3863503  64.2923906
   8.2007714  31.7082667  68.5894783   8.0229476  31.2559276  69.3149699
   7.9126737  32.5108828  68.7733261   8.1320668  31.7605224  68.7238286
  23.8631296  32.9640384  67.8272173  24.3584961  32.2463379  67.7876194
  23.0531071  32.6611182  67.7126660  23.8175189  32.8138030  67.8045899
  19.3089907  36.8138197  59.9769178  18.5001230  36.4904871  59.9302487
  19.8164816  36.1071419  59.9097427  19.2639574  36.6619514  59.9599472
   9.9380184  34.2410390  65.7016542   9.0725704  34.2296081  65.5899313
  10.0379000  34.0540613  66.5487681   9.8254351  34.2116452  65.8105487
  25.9283114  35.7144072  70.5149302  26.3538186  35.1918493  69.9619727
  25.5640034  36.3124909  69.9937925  25.9369717  35.7254299  70.3558312
  15.5637194  44.0108289  69.2746648  15.8783753  44.8244677  69.2824429
  15.9730608  43.6258508  69.9428807  15.6705292  44.0736991  69.3750739
  22.5161714  39.4278336  66.8450460  22.9872892  40.1418598  67.0140445
  22.8521892  38.8277086  67.3810329  22.6356829  39.4449800  66.9482836
  24.6038698  41.0379649  79.0242532  24.7135664  40.2488210  79.3799279
  24.9329595  40.9485585  78.2216870  24.6691104  40.9085502  78.9584922
  23.1535660  39.2196270  73.6078152  22.6056606  38.5954154  73.3398218
  23.6148689  39.4090542  72.8922232  23.1402870  39.1555320  73.4628583
  22.5063564  21.1236132  70.3989648  21.7009528  21.0133862  70.7157486
  22.3770299  21.2248588  69.5419514  22.3683697  21.1219803  70.3197688
  25.9629524  27.2881624  70.9929345  25.3792513  27.7890831  70.5806912
  26.2833819  26.7811181  70.3593668  25.9242700  27.2873459  70.8387852
  18.5024324  26.2022219  61.2688019  19.3240018  26.3720532  61.0269714
  18.0393975  26.3569480  60.5454317  18.5555486  26.2503952  61.1259664
  12.9050214  37.9581397  68.9225256  13.5095072  37.9177232  68.2939077
  12.6977527  38.8052549  68.9529312  12.9639112  38.0769400  68.8341373
  22.7193986  40.2247343  70.1387494  23.5392360  40.0810309  70.4003789
  22.4388064  40.8493541  70.6803931  22.7990730  40.2957695  70.2575433
   8.1401497  36.9416015  68.7924179   8.0425775  36.1312286  69.1014236
   8.9230366  36.9207808  68.4070447   8.2417633  36.8183105  68.7811042
  39.1907637  47.8812194  63.1030370  39.1601641  48.7356831  63.2748639
  39.7888986  47.5807487  63.6616513  39.2744795  47.9628691  63.2105172
  32.3907322  46.9687845  67.8583300  31.5345217  47.1296344  67.9092417
  32.4374975  46.0979909  67.8788361  32.2706433  46.8638647  67.8689366
  26.7748461  56.5050563  63.6220532  26.0231361  56.1266102  63.3936577
  27.2234473  56.5368997  62.8739342  26.7298128  56.4536170  63.4778034
  35.7001038  53.2374371  77.4643756  36.4067805  52.7426402  77.5930691
  35.8888974  53.6783452  76.7346414  35.8328944  53.2292721  77.3752802
  32.2273421  56.9275933  59.0506079  31.8924790  57.6052854  58.6150301
  32.7400292  56.5381244  58.4622951  32.2539002  56.9700511  58.8992870
  31.7677713  58.8790201  64.9917191  32.1517092  59.4477100  64.4521966
  31.7036854  58.1539712  64.5123007  31.8151140  58.8565665  64.8411053
  35.2359143  49.0279889  70.5014952  35.7815103  49.7064976  70.5608922
  35.1776019  48.8867350  69.6416533  35.3075057  49.1071891  70.3827013
  28.3533218  56.5168955  65.8883304  28.4543580  55.7069309  66.1980432
  27.7574963  56.4225902  65.2582983  28.2805756  56.3833983  65.8409543
  28.1933957  61.4346545  67.2898160  28.8371413  61.8759709  67.6794319
  28.5190213  60.6299971  67.2028419  28.3365786  61.3811739  67.3343638
  21.5498262  52.5389242  65.5135638  21.3148446  51.7056894  65.4067907
  21.6883903  52.8193908  64.6996839  21.5353924  52.4572745  65.3777993
  23.8488349  44.7074973  68.4119946  23.2293381  44.1167620  68.2429961
  23.7472213  45.2986408  67.7784269  23.7426025  44.7079055  68.2924935
  28.8954537  54.4458519  62.6618022  29.2170378  54.9863727  62.0579330
  29.5426633  53.8755291  62.7940312  29.0380592  54.4417695  62.5925057
  30.9456245  46.4474514  62.7452409  31.6436410  46.6262642  63.2373872
  31.2608577  45.9244854  62.1222798  31.0951582  46.3968286  62.7254419
  23.5757482  48.2527254  70.6563515  23.4516179  48.8389700  71.2913334
  24.2275767  47.7587450  70.9575790  23.6531132  48.2666059  70.7949444
  31.1344180  52.8344959  62.7332200  31.5737816  52.2262060  63.1786973
  30.9848843  52.4552333  61.9617665  31.1765646  52.6883430  62.6851368
  28.6015823  51.4288971  69.9351026  29.2464826  50.9361414  69.6161974
  28.8417600  51.5713758  70.7617104  28.7326408  51.3766413  70.0100559
  31.1401915  54.2743877  69.5857918  31.4225158  53.4795283  69.3644674
  31.8688075  54.7524464  69.6062979  31.2891478  54.2278474  69.5560934
  29.1183109  41.8166911  66.8273683  28.7886439  42.2678055  66.1577382
  28.4428110  41.7383074  67.3746690  28.9693545  41.8718046  66.8096907
  36.3259516  37.8052434  65.0723294  36.0112957  38.4955912  65.5043716
  35.8086458  37.7497216  64.3708795  36.2023987  37.8987322  65.0320243
  41.1220003  53.3803239  66.5593749  40.2917706  53.5913883  66.7227166
  41.0729255  52.5540294  66.2836033  40.9926738  53.2892846  66.5431115
  27.5571558  51.7020152  59.9868173  26.9728773  52.2070183  60.3934037
  27.1541653  51.4762538  59.2464765  27.4110862  51.7428400  59.9373198
  23.1115587  57.4174913  66.7891844  22.6283165  58.1425402  66.7651428
  23.9238905  57.7151043  66.9002002  23.1606334  57.5677266  66.8019123
  29.1829741  56.2107093  69.3941659  28.6656682  55.8514508  68.7902967
  29.8804132  55.6869268  69.4047725  29.2095322  56.0804781  69.3071917
  32.8393333  56.6601907  75.3557832  32.9276678  56.4728048  76.2036042
  33.2683045  56.0139337  74.9562678  32.9155435  56.5364915  75.4229583
  30.4063792  55.9433067  74.3375494  29.8434627  55.5305677  74.8615155
  31.1684816  55.8685973  74.7568637  30.4358241  55.8710468  74.4768494
  27.3239063  39.8779199  62.3096631  28.0785031  40.2457516  62.0713681
  27.1466597  40.2518754  63.0775811  27.4093541  39.9877387  62.3881520
  40.6173961  46.0273640  70.3544171  39.7802382  46.0975827  70.5891765
  40.5862192  46.0298135  69.4818473  40.4892244  46.0383867  70.2603718
  27.0138690  48.1706676  76.0692539  27.1859194  48.0612570  76.9177821
  27.5508048  48.8161081  75.8323731  27.1183694  48.2498677  76.1597636
  25.6796127  42.2849518  59.0074744  25.4971700  42.5021399  58.1815737
  26.5421740  42.3988531  59.0633359  25.7800717  42.3339416  58.8929231
  25.2910559  54.1237441  66.4497732  26.1299459  54.3560373  66.4971494
  25.3222328  53.2541752  66.3804767  25.4192277  54.0294387  66.4462377
  25.9163262  54.5438316  70.7511038  26.4561487  54.4009447  71.4214410
  25.2333208  54.9435067  71.1195064  25.8955416  54.5817987  70.9045459
  31.3595846  39.2875929  62.0423768  32.0882007  39.1091884  61.5961924
  31.4490739  40.1294009  62.2530946  31.4802508  39.3859807  62.0077286
  35.3404147  50.2229316  65.9456062  36.0961662  50.6560831  65.9844971
  35.4466472  49.5734086  66.5190698  35.4674318  50.1906800  66.0354088
  38.3784318  54.0502594  66.6958465  37.9419550  54.0539336  67.4517436
  38.0447234  54.7308093  66.2638042  38.2646938  54.1515049  66.7439298
  32.9513392  56.0910926  78.0201615  33.7353808  56.2041774  78.3857357
  32.7509986  55.2652064  78.2160301  33.0379417  55.9857646  78.1036001
  21.3200407  50.7638607  70.9045459  21.0538823  49.9477723  71.0636449
  21.3338971  50.8091762  70.0340975  21.2825130  50.6495511  70.7998941
  38.2981801  41.0916421  68.9387893  38.9407710  41.1614526  69.5249808
  38.5504822  40.4245644  68.4367435  38.4303933  41.0042770  68.9515172
  25.2258154  45.5623691  57.5197217  24.5116331  45.2761871  57.9319650
  25.7102123  45.9020317  58.1603605  25.1917518  45.5705341  57.6752852
  26.0699014  44.3016985  73.5512467  25.3770810  43.8313965  73.7973198
  26.6859341  44.0755289  74.1254174  26.0583544  44.1984117  73.6721619
  33.1083785  58.0021029  71.6668071  32.3099031  57.7620529  71.9241939
  33.5569797  58.0535421  72.4135119  33.0558396  57.9743420  71.8152995
  41.5128664  50.7683514  65.5878102  42.1745099  50.2074182  65.4874011
  40.8720076  50.2735544  65.9130793  41.5157532  50.6119923  65.6210442
  32.4005472  54.0653645  57.8959025  32.8156621  53.7338669  57.2043521
  31.5697402  53.8322547  57.7679162  32.3393481  53.9824901  57.7749873
  21.7293821  51.5497386  68.1857203  21.5469394  51.5244272  67.3329496
  22.4643490  52.0196324  68.2246112  21.8107885  51.6158748  68.0655122
  37.7993495  51.7848896  65.3290091  38.0349084  51.9294095  64.5016942
  37.9483059  52.5491304  65.7221605  37.8559298  51.9187950  65.2653695
  24.7939573  48.2682389  74.6939312  25.5179545  48.2535420  75.1804207
  24.8955709  48.9777744  74.1961280  24.9157782  48.3707092  74.6918099
  39.6283952  50.6250562  63.1659695  39.9592169  51.1578202  62.5599790
  40.2017040  50.6789450  63.8221646  39.7617631  50.7120131  63.1737476
  32.1684522  51.7481473  79.5588259  31.3757503  52.0624985  79.7440879
  32.2833449  51.9632942  78.7209044  32.0679933  51.8265310  79.4626594
  34.8415841  48.4715465  63.8483275  34.9362695  49.2104759  64.3022900
  34.2174685  48.0432940  64.2817839  34.7624871  48.5176785  63.9791422
  33.0968315  51.6501677  74.4973556  33.6707176  51.0128921  74.6522120
  33.0183119  51.6505760  73.6283213  33.1701550  51.5566789  74.3919967
  21.6964731  48.4290887  68.3356270  22.2738234  48.2927337  68.9748515
  20.9978793  47.9726671  68.5901854  21.6785753  48.3413153  68.4678560
  28.4532033  50.0824942  66.5494753  28.1951278  49.2496677  66.5226053
  28.5080516  50.3082555  65.7087254  28.4231811  49.9922714  66.4214890
  33.5333084  42.1853393  66.6498846  32.8289410  41.6962579  66.8082765
  33.5818058  42.1975867  65.7787290  33.4363135  42.1143041  66.5438186
  27.4266746  47.6362705  67.0359648  26.8516337  47.7954873  67.6723609
  27.0502422  46.9998114  66.5728099  27.2869558  47.5660518  67.0614206
  31.0940034  46.1086054  71.8952026  30.7054467  45.6840272  71.2404218
  30.4294733  46.3568204  72.4029053  30.9386962  46.0824775  71.8739894
  40.7363303  45.8661059  64.6699856  40.4799868  45.0541000  64.4797739
  41.5792617  45.8738626  64.4430044  40.8229329  45.7473056  64.6084674
  17.1723564  47.2802780  65.0504089  17.2583816  46.9034648  65.8317619
  17.7999362  46.9063225  64.5724047  17.2780115  47.1688262  65.0949566
  34.9166396  39.8060683  69.4076011  35.2976908  39.1238854  69.7943885
  34.1129680  39.5170285  69.2251675  34.8542858  39.6627731  69.4380067
  32.1978973  50.3384659  60.0928833  33.0119611  50.6299551  59.9811605
  32.1338114  49.6844521  59.5187126  32.3081712  50.2849853  59.9917671
  38.4188463  53.0210655  74.5058409  38.1827100  52.1898720  74.3870470
  39.0631692  52.9696262  75.0913253  38.4783133  52.8908343  74.5744303
  28.0686881  53.8106176  65.2201145  28.7060828  53.5717924  65.7652939
  28.4941952  54.0143335  64.4854306  28.2263047  53.8057186  65.1918303
  22.7599523  56.0494513  69.1035449  22.8003668  56.3209364  68.2755229
  23.3194047  56.5736421  69.5193237  22.8482869  56.1670268  69.0427337
  28.7089696  49.0308466  59.5576035  29.0934849  48.8116173  60.3092580
  28.4601316  49.8571411  59.6877111  28.7291768  49.1206612  59.6877111
  39.4424883  52.8055104  70.5686703  39.1370700  53.5383160  70.9300019
  38.7231099  52.3993033  70.2879490  39.2912226  52.8536837  70.5799841
  30.4508353  54.2878599  66.8994932  30.5247361  54.1253771  67.7536782
  31.2677859  54.4768788  66.6555413  30.5824711  54.2915341  66.9892957
  45.1426675  49.4448104  69.8955048  45.0751176  49.4644063  69.0257634
  45.1282338  50.2878431  70.1210718  45.1305432  49.5721839  69.8007525
  24.2114109  54.6336462  63.9289375  23.3852227  54.8798199  63.8023654
  24.2726101  54.5548542  64.7951433  24.0988276  54.6581411  64.0378320
  26.4290133  40.7005403  64.8884815  25.5612559  40.7728002  64.9542425
  26.7165337  41.5027482  65.0772790  26.3429881  40.8299550  64.9259582
  35.5523022  40.8483262  73.2196137  36.2976614  40.6593072  72.8059563
  35.1360327  41.3741500  72.6609994  35.6007996  40.8985407  73.0760710
  28.9912938  57.2513342  61.6308405  29.2811237  56.8602323  60.9067632
  29.7216419  57.4330047  62.0713680  29.1419823  57.2207156  61.5891212
  42.9285293  48.2192490  68.1701642  43.4793214  47.5860560  68.4098734
  42.9129408  48.7507883  68.8617146  43.0070489  48.2041439  68.3080500
  29.5807684  52.0531088  72.7161536  29.0819377  52.7646855  72.7946424
  30.3907908  52.3731754  72.6779698  29.6263790  52.2057936  72.7218104
  26.9318854  59.2280724  64.6968555  26.7119149  58.9378079  65.4895222
  26.7113376  58.5695679  64.1686467  26.8666448  59.0880433  64.7357464
  25.8435801  51.3154041  66.9624256  25.5549050  50.6891512  67.4969984
  26.7119149  51.2574328  67.0288937  25.9296053  51.2141585  67.0515211
  36.6313699  46.4588824  67.2806238  36.2878465  45.7379159  67.6313488
  36.7306742  46.2502675  66.4384597  36.5955742  46.3213027  67.2077918
  29.0986810  60.6010114  63.4799247  29.7510868  60.0686556  63.7090273
  28.4012418  60.2478766  63.8667121  29.0917528  60.4699637  63.5711415
  26.0468075  52.9549292  62.8866622  26.8014043  53.3362331  63.1002084
  25.4538687  53.4060435  63.3413318  26.0704788  53.0778119  62.9849500
  37.0926728  52.9214528  62.8230226  37.6584761  53.5807738  62.7388769
  36.4454632  53.2664226  63.2946629  37.0805485  53.0696470  62.8802983
  28.5074742  44.9112132  78.0123834  27.6974517  45.2169912  77.9013676
  28.9849428  45.6317714  78.1276418  28.4578220  45.0626733  78.0130905
  27.3666301  54.1257853  68.2606737  26.8447055  54.2658145  68.9458602
  27.7540321  53.3668517  68.4508854  27.3470002  54.0343377  68.3907813
  24.3557485  44.1763662  62.3301692  24.0682281  43.8064932  61.5933639
  25.0427953  44.6458517  62.0685397  24.4146383  44.1910631  62.1816767
  33.5633306  55.8653312  62.2467306  33.3219982  55.1321173  61.8394371
  33.7434639  56.4140169  61.5933639  33.5540930  55.8375704  62.0897529
  28.7932627  51.1561872  63.6588228  28.5975409  51.7636607  63.0648531
  29.0166972  50.4629816  63.1779902  28.7967268  51.1439398  63.5004309
  27.1911157  48.0416610  63.7769096  27.9133809  48.2057768  63.3172902
  26.7119150  48.7626275  63.6708436  27.2274887  48.1714840  63.6934710
  35.1504664  44.3780409  69.1565781  34.3115765  44.4041688  68.9204045
  35.2209032  45.0251144  69.7371128  35.0373058  44.4776535  69.2074898
  24.8418774  50.4474682  72.8823236  25.3539870  50.7258936  72.2331996
  24.5555116  51.1863977  73.2486049  24.8753637  50.5977036  72.8413114
  33.5973943  41.2765786  63.8893397  34.3000295  41.0773534  63.4113355
  33.3318131  40.5041728  64.1962241  33.6620575  41.1328752  63.8638839
  39.0262188  49.5848396  66.4427023  38.9396163  49.7403822  67.2961802
  38.5712668  50.2286471  66.0686428  38.9465445  49.7024151  66.5134130
  21.9285680  44.9544874  63.1786973  22.0301816  45.7571036  63.5067948
  22.7241567  44.7532210  62.8810053  22.0613585  45.0430773  63.1822328
  28.3602499  42.5401071  72.9424278  28.1685696  42.5556206  73.7923701
  29.2101095  42.7364745  72.9190933  28.4578221  42.5715422  73.0647573
  22.7449412  45.0692053  70.9208094  22.6034904  44.2175993  71.0452602
  23.0289975  45.1120713  70.0970300  22.7657258  44.9491803  70.8175718
  32.8988004  46.9059143  65.0652582  32.6522719  46.8254894  65.8989371
  33.2273127  46.1212611  64.8715110  32.9109248  46.7785408  65.1600106
  36.7936053  53.6142502  68.8539364  36.6550412  54.3123548  69.3588106
  36.0136051  53.4591159  68.4975546  36.6579280  53.6942669  68.8765638
  35.1314138  49.9138877  75.1061745  35.1262177  49.0418694  75.1104172
  35.8375132  50.1127047  74.6331201  35.2359142  49.8142752  75.0368781
  28.8585032  49.6415861  74.4775566  29.0028407  50.2217069  73.8418676
  29.2060680  50.0192158  75.1825420  28.9312493  49.7836565  74.4874561
  31.0304949  48.8406030  72.2600697  30.2828263  49.0337044  71.8548975
  31.1846474  48.0151249  72.0224818  30.9427377  48.7471141  72.1646103
  27.9312787  57.8318633  71.3436592  28.0802350  57.2721549  70.6909997
  28.7112789  57.9110635  71.7269111  28.0686880  57.7604199  71.3033542
  38.2889426  52.9720756  59.6155863  37.9096235  52.1857894  59.6085152
  37.6255671  53.5207613  59.4727507  38.1347901  52.9365580  59.5936660
  30.4566087  58.0033276  72.6221083  30.3809758  57.3342087  73.1771871
  30.3855946  58.7051064  73.1361749  30.4346694  58.0078183  72.7797931
  31.2706726  42.7356580  73.1496101  31.7279340  43.4680555  73.2768893
  31.3463055  42.3123046  73.9083357  31.3497696  42.7813819  73.2797177
  23.5139717  42.9822400  74.2385545  22.9781907  42.3702758  74.5546312
  23.5757482  43.5570536  74.8919211  23.4435350  42.9769328  74.3820971
  35.7434052  35.9146456  67.0189944  35.8617620  36.3722919  66.2857247
  35.5696228  35.1091717  66.7326161  35.7353223  35.8640228  66.8690877
  31.1136334  56.5234275  63.4544689  31.8786225  56.2543919  63.1327353
  31.0114424  56.0384285  64.1714752  31.2117830  56.4123840  63.5124517
  29.1489104  44.7258684  69.9937925  28.3585179  44.5450144  70.3155261
  29.5449727  43.9485637  69.9768219  29.0905980  44.5846145  70.0390473
  34.5332790  52.3601115  67.7197371  33.8577792  52.1286347  68.2210758
  34.5425166  51.7522297  67.0939476  34.4351295  52.2360040  67.7013523
  31.6626934  47.2018943  74.4761424  31.5986075  48.0628900  74.3481561
  31.8024122  46.8850937  73.6756975  31.6742404  47.2819110  74.3389637
  36.5349525  55.2166247  59.9507549  36.6169362  56.0233233  59.6269000
  37.0199267  55.2362206  60.6748322  36.6186683  55.3386909  60.0094447
  30.3446028  49.8951083  68.6177627  29.9208277  50.0955582  67.8816645
  30.1690883  49.0479931  68.7301927  30.2556909  49.7999864  68.5251317
  29.8457722  61.4101596  71.0799084  30.3353652  60.7112385  70.8974749
  29.2741954  61.1125466  71.6675141  29.8342251  61.2627819  71.1400125
  25.6328473  50.3903134  64.0505599  25.7893092  50.3249937  64.9061591
  25.9729066  51.1651687  63.8384279  25.7061708  50.4952332  64.1460193
  32.1707618  49.7661018  62.9198962  32.7123163  49.2631399  63.3837583
  32.4854177  49.7126213  62.1088448  32.2972015  49.6840439  62.8682775
  36.0424725  53.9763665  80.0325875  36.8559590  53.7048814  80.1931007
  35.8819691  53.6771205  79.2286071  36.1394674  53.8918591  79.9371281
  30.3394067  55.1578369  60.2038990  30.4086888  54.2992908  60.3431991
  31.1182522  55.3750250  59.8758015  30.4646917  55.0631233  60.1756148
  33.3196887  44.6597322  72.9721263  33.5338857  44.0208237  72.4184617
  32.7030786  45.1043146  72.5429125  33.2602216  44.6307466  72.8271694
  34.7301555  57.5816071  64.4175484  34.3381347  57.2782786  63.6998350
  34.8854627  58.4185161  64.2280438  34.6955145  57.6599907  64.2831981
  22.2062735  47.5738085  64.3666366  22.5861699  47.9922630  63.7026634
  21.6318099  48.1551540  64.6735210  22.1774059  47.7215944  64.3143107
  35.4835975  46.2686388  73.9104570  34.6712657  45.9612278  73.9917743
  35.9425910  45.7885388  74.4747282  35.4316360  46.1522880  74.0059164
  34.8941230  54.1466060  64.3581514  34.5355884  54.3180702  65.1345547
  34.4079940  54.6079265  63.8009513  34.7699927  54.2405031  64.3906783
  32.7111616  37.7697258  67.9608606  31.8405174  37.7435979  67.9141915
  32.9651957  37.5974450  67.1434451  32.6205176  37.7407402  67.8328742
  29.6829595  49.8265225  56.8981749  29.9722120  50.6030107  57.1725323
  29.7701394  49.3153956  57.5996248  29.7383851  49.8657143  57.0424247
  32.5789483  47.6746459  78.6933272  33.0489114  48.2988575  79.0801146
  32.6251363  47.0063435  79.2526487  32.6557358  47.6681139  78.8333344
  29.7360756  39.7803486  69.4182076  29.2199245  39.0883678  69.5433655
  29.1754685  40.4474263  69.3644675  29.5767269  39.7766744  69.4288142
  31.8052990  40.3196446  71.2474929  31.4184743  40.3445478  72.0288459
  31.3185927  39.7538125  70.7949445  31.6765499  40.2392197  71.2962832
  36.0545969  55.0369955  75.3048715  36.6925690  54.5430151  74.9711171
  35.4120061  54.9647356  74.7200942  36.0540196  54.9528964  75.1691070
  37.7802969  46.8859101  69.8714631  37.3530577  46.7985450  69.1162730
  37.1429022  46.9936877  70.4569475  37.6232576  46.8891761  69.8460072
  31.4710131  37.2063432  73.5385189  32.1003249  37.7423732  73.2606259
  31.6395994  37.1140791  74.3898754  31.5887926  37.2724794  73.6233717
  31.2724046  41.9934627  75.8111600  32.0997476  41.7219776  75.8670215
  31.2931892  42.7895468  76.1675418  31.3976896  42.0714381  75.8726783
  36.1100226  55.7289764  71.9454072  36.8992604  55.3778828  72.0656154
  36.2843823  56.5426152  71.6830706  36.2520507  55.7975621  71.9241940
  25.8493536  49.1398489  68.9981861  25.0081543  49.0402364  69.2060755
  26.0583544  49.9093970  69.3496182  25.7558229  49.2390533  69.0809176
  23.3269103  46.7618026  66.8266612  22.9325801  46.8361038  66.0516721
  22.7709220  47.1475973  67.3774973  23.1871915  46.8299801  66.7934271
  34.9634050  39.7399320  66.5070490  35.1683643  39.6721628  67.3527488
  34.6360474  40.5458142  66.4391668  34.9449298  39.8485261  66.6230146
  29.6610201  47.0679889  68.2479458  29.3573338  46.5135877  68.8489866
  28.9589622  47.2472099  67.7607493  29.5126411  47.0124671  68.2649164
  28.7176298  44.3780408  62.8124160  28.9936032  43.6599321  62.4001728
  29.3174967  44.9765328  62.6045266  28.8469563  44.3600779  62.7204921
  27.7228552  54.2829609  72.9551556  27.6148907  54.2931672  73.8213614
  27.9324333  55.1084390  72.7656510  27.7378663  54.4070684  73.0555648
  38.2167738  40.2931085  65.9873256  37.6042051  40.7801487  66.3726988
  38.3131912  39.6174576  66.5310907  38.1405635  40.2649393  66.1252114
  25.7402344  51.5342252  70.4173494  25.1490277  52.1751750  70.3876509
  26.5023367  51.9579869  70.3904793  25.7650605  51.6918090  70.4088641
  26.1362967  42.6944250  71.0841511  26.5964448  42.7683179  71.8216635
  26.1819073  43.4925504  70.7341333  26.2113522  42.8238397  71.1414268
  27.7846316  43.3610944  75.6513538  27.3931882  42.7144292  76.0869316
  27.9532179  43.9522380  76.2707794  27.7517227  43.3525212  75.8076244
  41.8592765  51.3648021  71.4150772  41.9175889  51.8134670  72.1610749
  41.2259233  51.7746834  70.9780852  41.7744061  51.4921756  71.4603320
  35.4991860  56.9851563  67.8505518  35.3011549  57.4742378  67.1561730
  34.8779571  57.1892805  68.4289652  35.3779425  57.0868102  67.8328741
  29.5599839  48.7536460  62.1915762  30.3041883  49.1410736  62.4298712
  29.7060535  47.9093886  62.3556250  29.6910424  48.6866933  62.2509732
  31.4779414  40.5486719  67.2247624  30.6315459  40.7209527  67.0988974
  31.4750546  39.7436063  67.5613452  31.3526564  40.4547748  67.2558751
  32.5477714  44.3261933  68.0909682  32.0737669  43.8003696  68.6014993
  32.9195850  43.7791406  67.5224543  32.5327603  44.1677930  68.0824829
  22.9250745  46.3233440  73.4593228  23.7876358  46.2229149  73.3730557
  22.5942528  45.7428149  72.8978800  23.0035941  46.2225067  73.3638633
  38.8114445  49.3864309  69.5016462  38.5712668  48.5470724  69.5058889
  39.2906452  49.4664476  70.2257236  38.8466629  49.2745709  69.6091265
  40.8119632  46.1665766  67.4545721  40.5729402  46.1261601  66.6166506
  40.9753533  47.0136918  67.5811443  40.8009935  46.2857851  67.3499203
  37.4165662  50.5515716  73.3850767  38.1399861  50.0988242  73.2061786
  37.1515624  50.8320381  72.6023094  37.4846935  50.5266684  73.2429482
  26.2852530  45.1475889  70.1203646  25.6605601  45.1594281  69.5129598
  25.9498125  45.6236064  70.7694886  26.1438022  45.2194406  70.1260214
  26.4694279  43.4901008  56.1776331  26.1207084  44.1420733  56.6407880
  25.9890725  43.4758121  55.4500202  26.3464523  43.5844061  56.1387422
  22.9978206  53.2076349  71.5607410  22.4678131  52.5168788  71.6102385
  23.2703299  53.1986535  70.7320119  22.9602928  53.1043481  71.4454826
  34.0298297  53.7902052  60.2845093  34.7532495  54.2560165  60.1409666
  33.5898888  53.8575661  59.5342690  34.0713989  53.8685888  60.1529874
  33.1984452  50.6499594  71.5345782  32.5841445  50.1057644  71.8294417
  33.7151737  50.1363830  71.0551598  33.1840114  50.4936003  71.5070010
  32.4380749  51.7203864  69.2690080  32.0108357  51.0953583  68.8355516
  32.4305693  51.4378786  70.0949087  32.3739890  51.5856645  69.3269908
  25.5543276  46.7569037  72.3378514  25.7136763  46.0012361  72.7430236
  25.3736169  47.3059977  72.9919252  25.5508635  46.7262851  72.4941220
  33.4963579  38.9230273  72.8929304  33.0004140  39.1193947  72.2020870
  34.2532641  39.3222941  72.7218105  33.5350404  39.0108006  72.7649440
  30.7666458  42.5972618  69.4832614  30.7908946  42.0632731  68.7945394
  31.0177932  42.0889927  70.1458205  30.8076377  42.4433522  69.4797259
  18.2774048  49.8804113  68.9175758  18.1717497  49.8350958  68.0527842
  17.5274268  50.2257894  69.1990043  18.1509651  49.9245022  68.8313088
  27.0467781  41.3243437  68.8638359  27.0866152  41.8252643  69.5773066
  26.2217445  41.4153830  68.5944282  26.9307307  41.4125253  68.9288897
  29.2297394  50.8904177  76.9658653  28.3793024  51.0275891  77.1016298
  29.3925521  50.1567955  77.4106355  29.1281257  50.8018278  77.0514252
  28.4682144  47.8403947  71.1612258  27.6374074  48.0077765  70.9547506
  28.4133661  47.4639897  71.9461143  28.3371559  47.8093678  71.2460786
  26.2765927  41.3312839  76.7968668  26.9018631  40.7874972  77.0698101
  25.8216407  40.8507757  76.2276459  26.3014188  41.1802321  76.7530262
  26.8418188  46.1159538  61.6902375  26.9821149  46.6132002  62.3931017
  27.3400721  45.4145832  61.8316589  26.9359269  46.0861517  61.8153954
  26.8718410  46.9826649  59.0194952  27.5063490  47.5787074  58.9544414
  26.9544021  46.6830107  59.8340822  26.9774961  47.0267557  59.1298039
  39.8500976  49.5142126  71.8881316  40.4418816  50.1539377  71.9199514
  40.2859971  48.8165163  72.1773383  40.0019407  49.5060477  71.9362149
  28.4497393  42.9140625  58.9940394  28.7713234  42.4343707  58.3399656
  28.7124337  43.7240271  58.8031206  28.5363419  42.9630522  58.8695886
  31.6794366  53.9359499  72.5139210  31.1719457  54.4895346  72.9579841
  31.3821012  53.9967789  71.6957985  31.5599251  54.0265810  72.4587667
  33.8456548  42.3012818  71.3563873  34.2711620  41.8485345  70.7447400
  33.2313541  41.7472889  71.6328661  33.8185194  42.1526795  71.3068898
  23.3771398  49.1794490  62.2884498  23.8863628  49.7758997  62.6695804
  23.8505670  48.9120464  61.6060918  23.5214774  49.2280305  62.2439021
  34.2902146  57.8522757  60.4443154  33.5731456  57.6783619  59.9790391
  34.9408884  57.6175329  59.9118640  34.2803997  57.7918549  60.2972372
  32.2850771  38.7727918  64.7654450  31.6419089  38.6225565  65.3339589
  31.9450178  38.5270264  64.0003555  32.1395848  38.7140041  64.7357465
  36.8750117  46.7287345  64.1884459  36.2041307  47.2717047  64.0597524
  37.5689868  47.1982200  63.9466154  36.8778985  46.8785616  64.1339987
  30.9236851  58.8684057  69.4196217  30.7002506  58.1102886  69.7880243
  30.4346694  58.8982078  68.6976657  30.8180300  58.7606282  69.3672958
  37.0378245  43.1843229  67.0974832  37.3905855  42.7572952  67.7720631
  36.1793046  43.0994072  67.2275908  36.9627690  43.1087969  67.2169842
  25.7361930  45.8150748  65.1557679  25.0173919  46.2314881  65.4230542
  26.1074292  46.3804987  64.6049317  25.6853862  45.9600030  65.1140486
  35.0361511  46.4478597  71.0459674  35.0159438  46.2661893  71.8994453
  35.0840711  47.3190616  71.0219258  35.0396152  46.5495136  71.1682969
  32.9807841  53.0365789  76.9708151  32.9403695  52.3915466  76.3853307
  33.7931159  52.9802407  77.2833563  33.0950994  52.9324756  76.9305100
  29.5715308  59.0884515  66.8733302  29.1575707  58.4258645  66.4837143
  30.2562682  59.2362374  66.3528996  29.6113680  59.0125173  66.7389799
  32.9380602  58.2474601  67.6256918  32.5396885  58.3576871  66.8577739
  32.3231822  58.4556667  68.2083478  32.7879492  58.2948169  67.5988218
  31.5108504  44.8548748  60.4931058  30.9173344  45.1765745  59.9415625
  31.5483782  44.0089844  60.2852164  31.4282893  44.7773077  60.3813829
  38.4702305  38.3061641  68.0259145  37.9633170  37.5990780  67.9580322
  39.2669739  37.9754829  68.1560221  38.5129544  38.1534792  68.0358139
  34.3866321  44.8128253  63.9232808  34.1580014  44.8360954  63.0811166
  34.6464397  43.9885720  64.0427819  34.3912509  44.6944333  63.8158006
  28.6685549  46.6662726  73.5257908  28.1564452  46.0583909  73.8842940
  28.4965045  47.3819318  73.9931884  28.5675186  46.6826025  73.6474132
  23.5151264  45.1100301  76.1760270  23.3453854  45.7701676  75.6308477
  23.0717214  45.3206862  76.8972759  23.4250598  45.2386283  76.2021900
  27.4411083  43.3504799  65.2187004  27.9168450  43.7121879  64.5837185
  26.9399683  44.0061267  65.4987147  27.4376442  43.4998988  65.1663745
  40.6722445  52.8226567  61.0100009  41.0556051  53.5717923  61.2398106
  39.8766558  53.0692387  60.7511998  40.6116227  52.9696261  61.0057583
  32.5454620  44.5886971  75.9660164  33.1026050  44.3600780  75.3338629
  32.2215685  45.3492636  75.6895376  32.5801030  44.6670807  75.8316661
  20.4153328  48.0147167  71.4348760  19.8680048  47.3447812  71.5529628
  21.2045707  47.6477015  71.4992227  20.4505512  47.8612153  71.4617461
  30.2637737  47.6754624  76.9312171  31.0149064  47.9906301  77.2451725
  30.4560313  47.4733795  76.1046093  30.4029151  47.6922006  76.8555567
  29.4837736  45.4945999  58.5860388  29.8636701  45.5125628  57.8011503
  28.7430333  45.9399988  58.4651235  29.4306574  45.5627774  58.4523956
  37.1123027  43.8028190  64.1735967  37.1117253  43.6476847  65.0320243
  36.9079207  44.6491177  64.1177352  37.0822805  43.9048811  64.2923906
  19.1740298  47.2267975  68.5894783  18.9962059  46.7744584  69.3149699
  18.8859320  48.0294136  68.7733261  19.1053251  47.2790532  68.7238286
  34.8363879  48.4825692  67.8272173  35.3317544  47.7648687  67.7876194
  34.0263655  48.1796490  67.7126660  34.7907772  48.3323338  67.8045899
  30.2822491  52.3323505  59.9769178  29.4733813  52.0090179  59.9302487
  30.7897399  51.6256727  59.9097427  30.2372157  52.1804822  59.9599472
  20.9112768  49.7595698  65.7016542  20.0458287  49.7481389  65.5899313
  21.0111584  49.5725921  66.5487681  20.7986935  49.7301760  65.8105487
  36.9015698  51.2329379  70.5149302  37.3270769  50.7103801  69.9619727
  36.5372618  51.8310217  69.9937925  36.9102301  51.2439606  70.3558312
  26.5369778  59.5293597  69.2746648  26.8516337  60.3429985  69.2824429
  26.9463191  59.1443816  69.9428807  26.6437876  59.5922299  69.3750739
  33.4894297  54.9463644  66.8450460  33.9605476  55.6603906  67.0140445
  33.8254476  54.3462394  67.3810329  33.6089412  54.9635108  66.9482836
  35.5771282  56.5564957  79.0242532  35.6868247  55.7673518  79.3799279
  35.9062179  56.4670893  78.2216870  35.6423688  56.4270810  78.9584922
  30.4063792  39.7191114  73.8008554  30.5391698  38.9222108  74.1289530
  30.7908945  40.2457517  74.3806830  30.4820121  39.6791031  73.9352057
  34.1268244  54.7381578  73.6078152  33.5789190  54.1139461  73.3398218
  34.5881272  54.9275850  72.8922232  34.1135453  54.6740628  73.4628583
  33.4796148  36.6421440  70.3989648  32.6742111  36.5319170  70.7157486
  33.3502883  36.7433896  69.5419514  33.3416280  36.6405110  70.3197688
  36.9362108  42.8066932  70.9929345  36.3525097  43.3076139  70.5806912
  37.2566402  42.2996489  70.3593668  36.8975283  42.8058767  70.8387852
  29.4756907  41.7207527  61.2688019  30.2972602  41.8905840  61.0269714
  29.0126558  41.8754788  60.5454317  29.5288069  41.7689260  61.1259664
  28.0652239  39.7150289  72.0486448  28.6096652  39.3741416  72.6390790
  28.1189175  40.5735751  72.1907733  28.1541359  39.7905549  72.1568322
  23.8782798  53.4766705  68.9225256  24.4827655  53.4362540  68.2939077
  23.6710110  54.3237857  68.9529312  23.9371695  53.5954708  68.8341373
  33.6926570  55.7432651  70.1387494  34.5124944  55.5995617  70.4003789
  33.4120648  56.3678849  70.6803931  33.7723313  55.8143003  70.2575433
  19.1134080  52.4601323  68.7924179  19.0158358  51.6497594  69.1014236
  19.8962950  52.4393116  68.4070447  19.2150217  52.3368413  68.7811042
  50.1640220  63.3997502  63.1030370  50.1334225  64.2542139  63.2748639
  50.7621569  63.0992795  63.6616513  50.2477378  63.4813999  63.2105172
  43.3639905  62.4873153  67.8583300  42.5077801  62.6481652  67.9092417
  43.4107559  61.6165217  67.8788361  43.2439017  62.3823955  67.8689366
  37.7481045  72.0235871  63.6220532  36.9963944  71.6451409  63.3936577
  38.1967057  72.0554305  62.8739342  37.7030712  71.9721478  63.4778034
  43.2006005  72.4461241  59.0506079  42.8657373  73.1238162  58.6150301
  43.7132875  72.0566552  58.4622951  43.2271586  72.4885819  58.8992870
  42.7410296  74.3975509  64.9917191  43.1249675  74.9662408  64.4521966
  42.6769437  73.6725020  64.5123007  42.7883723  74.3750973  64.8411053
  46.2091726  64.5465197  70.5014952  46.7547686  65.2250284  70.5608922
  46.1508603  64.4052658  69.6416533  46.2807641  64.6257199  70.3827013
  39.3265801  72.0354263  65.8883304  39.4276164  71.2254617  66.1980432
  38.7307546  71.9411210  65.2582983  39.2538340  71.9019291  65.8409543
  47.9856795  65.9749804  61.3748680  47.8696321  66.7257490  61.8040818
  48.7812682  65.7173758  61.6244767  48.0861384  66.0484651  61.4752771
  39.1666541  76.9531852  67.2898160  39.8103996  77.3945016  67.6794319
  39.4922796  76.1485279  67.2028419  39.3098369  76.8997047  67.3343638
  32.5230845  68.0574550  65.5135638  32.2881030  67.2242202  65.4067907
  32.6616486  68.3379216  64.6996839  32.5086508  67.9758053  65.3777993
  34.8220933  60.2260280  68.4119946  34.2025964  59.6352928  68.2429961
  34.7204796  60.8171716  67.7784269  34.7158608  60.2264363  68.2924935
  39.8687120  69.9643827  62.6618022  40.1902962  70.5049035  62.0579330
  40.5159217  69.3940599  62.7940312  40.0113176  69.9603002  62.5925057
  41.9188828  61.9659822  62.7452409  42.6168993  62.1447950  63.2373872
  42.2341161  61.4430162  62.1222798  42.0684166  61.9153594  62.7254419
  34.5490066  63.7712562  70.6563515  34.4248763  64.3575008  71.2913334
  35.2008350  63.2772758  70.9575790  34.6263715  63.7851367  70.7949444
  42.1076764  68.3530267  62.7332200  42.5470399  67.7447368  63.1786973
  41.9581427  67.9737641  61.9617665  42.1498230  68.2068738  62.6851368
  39.5748407  66.9474279  69.9351026  40.2197409  66.4546722  69.6161974
  39.8150184  67.0899066  70.7617104  39.7058992  66.8951721  70.0100559
  42.1134498  69.7929185  69.5857918  42.3957741  68.9980591  69.3644674
  42.8420659  70.2709772  69.6062979  42.2624062  69.7463782  69.5560934
  40.0915692  57.3352219  66.8273683  39.7619022  57.7863362  66.1577382
  39.4160694  57.2568382  67.3746690  39.9426128  57.3903354  66.8096907
  45.7086100  66.7057449  59.6862970  45.6237396  67.5618415  59.8312538
  46.1970484  66.4301773  60.3545129  45.7674998  66.7914770  59.8065051
  47.2992100  53.3237742  65.0723294  46.9845541  54.0141220  65.5043716
  46.7819042  53.2682524  64.3708795  47.1756570  53.4172630  65.0320243
  46.6404534  63.3242243  61.1860705  46.1116005  63.5401876  61.8458011
  47.1629554  64.0178381  61.1061674  46.6392987  63.4585380  61.2716304
  52.0952587  68.8988547  66.5593749  51.2650290  69.1099191  66.7227166
  52.0461839  68.0725602  66.2836033  51.9659322  68.8078153  66.5431115
  38.5304141  67.2205460  59.9868173  37.9461357  67.7255491  60.3934037
  38.1274237  66.9947846  59.2464765  38.3843445  67.2613708  59.9373198
  34.0848170  72.9360221  66.7891844  33.6015748  73.6610710  66.7651428
  34.8971488  73.2336351  66.9002002  34.1338918  73.0862574  66.8019123
  40.1562324  71.7292401  69.3941659  39.6389266  71.3699816  68.7902967
  40.8536715  71.2054576  69.4047725  40.1827905  71.5990089  69.3071917
  42.9881356  63.4671112  58.4637093  43.2277360  63.6749095  57.6512436
  43.3097197  62.6628620  58.5726038  43.0718514  63.3785213  58.3597646
  38.2971646  55.3964507  62.3096631  39.0517614  55.7642824  62.0713681
  38.1199181  55.7704062  63.0775811  38.3826125  55.5062695  62.3881520
  36.9392367  73.4516397  66.9412124  37.6412947  72.9368386  66.9984881
  36.8589850  73.7790548  67.7458999  37.0316128  73.4230623  67.0684916
  51.5906545  61.5458948  70.3544171  50.7534966  61.6161135  70.5891765
  51.5594776  61.5483443  69.4818473  51.4624827  61.5569175  70.2603718
  37.9871274  63.6891983  76.0692539  38.1591778  63.5797878  76.9177821
  38.5240631  64.3346389  75.8323731  38.0916278  63.7683985  76.1597636
  36.6528711  57.8034826  59.0074744  36.4704284  58.0206707  58.1815737
  37.5154324  57.9173839  59.0633359  36.7533300  57.8524724  58.8929231
  36.2643143  69.6422749  66.4497732  37.1032042  69.8745681  66.4971494
  36.2954912  68.7727060  66.3804767  36.3924860  69.5479695  66.4462377
  36.8895846  70.0623624  70.7511038  37.4294071  69.9194755  71.4214410
  36.2065792  70.4620375  71.1195064  36.8688000  70.1003295  70.9045459
  42.3328430  54.8061237  62.0423768  43.0614590  54.6277192  61.5961924
  42.4223323  55.6479317  62.2530946  42.4535092  54.9045115  62.0077286
  46.3136731  65.7414624  65.9456062  47.0694246  66.1746139  65.9844971
  46.4199055  65.0919394  66.5190698  46.4406901  65.7092108  66.0354088
  49.3516902  69.5687902  66.6958465  48.9152134  69.5724644  67.4517436
  49.0179817  70.2493401  66.2638042  49.2379522  69.6700357  66.7439298
  32.2932991  66.2823915  70.9045459  32.0271406  65.4663031  71.0636449
  32.3071555  66.3277070  70.0340975  32.2557713  66.1680819  70.7998941
  49.2714385  56.6101729  68.9387893  49.9140293  56.6799834  69.5249808
  49.5237405  55.9430952  68.4367435  49.4036517  56.5228078  68.9515172
  36.1990738  61.0808999  57.5197217  35.4848915  60.7947178  57.9319650
  36.6834707  61.4205625  58.1603605  36.1650101  61.0890649  57.6752852
  37.0431597  59.8202293  73.5512467  36.3503394  59.3499273  73.7973198
  37.6591925  59.5940597  74.1254174  37.0316127  59.7169425  73.6721619
  52.4861248  66.2868821  65.5878102  53.1477682  65.7259490  65.4874011
  51.8452660  65.7920852  65.9130793  52.4890116  66.1305231  65.6210442
  43.3738056  69.5838953  57.8959025  43.7889204  69.2523977  57.2043521
  42.5429985  69.3507855  57.7679162  43.3126064  69.5010209  57.7749873
  32.7026405  67.0682694  68.1857203  32.5201978  67.0429580  67.3329496
  33.4376073  67.5381632  68.2246112  32.7840468  67.1344056  68.0655122
  48.7726079  67.3034204  65.3290091  49.0081668  67.4479403  64.5016942
  48.9215642  68.0676612  65.7221605  48.8291882  67.4373258  65.2653695
  35.7672156  63.7867697  74.6939312  36.4912129  63.7720727  75.1804207
  35.8688293  64.4963052  74.1961280  35.8890365  63.8892400  74.6918099
  50.6016535  66.1435870  63.1659695  50.9324753  66.6763510  62.5599790
  51.1749624  66.1974758  63.8221646  50.7350215  66.2305439  63.1737476
  45.8148425  63.9900773  63.8483275  45.9095279  64.7290067  64.3022900
  45.1907268  63.5618248  64.2817839  45.7357455  64.0362093  63.9791422
  44.0700898  67.1686985  74.4973556  44.6439760  66.5314229  74.6522120
  43.9915702  67.1691068  73.6283213  44.1434133  67.0752097  74.3919967
  32.6697315  63.9476195  68.3356270  33.2470817  63.8112645  68.9748515
  31.9711377  63.4911979  68.5901854  32.6518336  63.8598461  68.4678560
  46.0671446  65.8349512  57.0820227  45.9851608  65.9051699  57.9475214
  46.7051166  66.3979256  56.8903968  46.1491283  65.9288483  57.1810176
  39.4264617  65.6010250  66.5494753  39.1683861  64.7681985  66.5226053
  39.4813100  65.8267863  65.7087254  39.3964395  65.5108022  66.4214890
  44.5065667  57.7038701  66.6498846  43.8021994  57.2147886  66.8082765
  44.5550642  57.7161175  65.7787290  44.4095719  57.6328349  66.5438186
  38.3999329  63.1548013  67.0359648  37.8248920  63.3140181  67.6723609
  38.0235005  62.5183422  66.5728099  38.2602142  63.0845826  67.0614206
  42.0672618  61.6271362  71.8952026  41.6787051  61.2025580  71.2404218
  41.4027316  61.8753512  72.4029053  41.9119546  61.6010083  71.8739894
  51.7095887  61.3846367  64.6699856  51.4532452  60.5726308  64.4797739
  52.5525201  61.3923934  64.4430044  51.7961912  61.2658364  64.6084674
  28.1456148  62.7988088  65.0504089  28.2316400  62.4219956  65.8317619
  28.7731946  62.4248533  64.5724047  28.2512699  62.6873570  65.0949566
  45.8898979  55.3245991  69.4076011  46.2709491  54.6424162  69.7943885
  45.0862264  55.0355593  69.2251675  45.8275441  55.1813039  69.4380067
  43.1711556  65.8569967  60.0928833  43.9852195  66.1484859  59.9811605
  43.1070697  65.2029829  59.5187126  43.2814295  65.8035161  59.9917671
  39.0419464  69.3291484  65.2201145  39.6793411  69.0903232  65.7652939
  39.4674536  69.5328643  64.4854306  39.1995631  69.3242494  65.1918303
  33.7332107  71.5679821  69.1035449  33.7736252  71.8394672  68.2755229
  34.2926631  72.0921729  69.5193237  33.8215453  71.6855576  69.0427337
  39.6822279  64.5493774  59.5576035  40.0667432  64.3301481  60.3092580
  39.4333900  65.3756719  59.6877111  39.7024352  64.6391920  59.6877111
  39.8490820  57.8300189  79.2738619  39.5344261  58.5999752  79.0108182
  39.5280752  57.2670445  78.6890846  39.7549739  57.8610458  79.1479969
  50.4157467  68.3240412  70.5686703  50.1103284  69.0568468  70.9300019
  49.6963683  67.9178341  70.2879490  50.2644809  68.3722144  70.5799841
  41.4240936  69.8063907  66.8994932  41.4979945  69.6439079  67.7536782
  42.2410443  69.9954096  66.6555413  41.5557295  69.8100649  66.9892957
  56.1159259  64.9633412  69.8955048  56.0483759  64.9829371  69.0257634
  56.1014921  65.8063739  70.1210718  56.1038015  65.0907147  69.8007525
  35.1846693  70.1521770  63.9289375  34.3584811  70.3983507  63.8023654
  35.2458684  70.0733850  64.7951433  35.0720860  70.1766718  64.0378320
  37.4022717  56.2190711  64.8884815  36.5345142  56.2913310  64.9542425
  37.6897921  57.0212789  65.0772790  37.3162465  56.3484858  64.9259582
  46.5255605  56.3668570  73.2196137  47.2709197  56.1778380  72.8059563
  46.1092910  56.8926808  72.6609994  46.5740580  56.4170715  73.0760710
  39.9645522  72.7698650  61.6308405  40.2543820  72.3787631  60.9067632
  40.6949003  72.9515355  62.0713680  40.1152406  72.7392464  61.5891212
  53.9017876  63.7377798  68.1701642  54.4525798  63.1045867  68.4098734
  53.8861992  64.2693191  68.8617146  53.9803073  63.7226747  68.3080500
  40.5540267  67.5716396  72.7161536  40.0551961  68.2832163  72.7946424
  41.3640491  67.8917062  72.6779698  40.5996374  67.7243244  72.7218104
  37.9051438  74.7466032  64.6968555  37.6851733  74.4563387  65.4895222
  37.6845960  74.0880987  64.1686467  37.8399032  74.6065741  64.7357464
  36.8168385  66.8339349  66.9624256  36.5281633  66.2076820  67.4969984
  37.6851733  66.7759636  67.0288937  36.9028637  66.7326893  67.0515211
  47.6046283  61.9774132  67.2806238  47.2611048  61.2564467  67.6313488
  47.7039325  61.7687983  66.4384597  47.5688325  61.8398335  67.2077918
  40.0719393  76.1195422  63.4799247  40.7243451  75.5871864  63.7090273
  39.3745002  75.7664074  63.8667121  40.0650111  75.9884945  63.5711415
  37.0200658  68.4734600  62.8866622  37.7746626  68.8547639  63.1002084
  36.4271271  68.9245743  63.3413318  37.0437372  68.5963427  62.9849500
  48.0659312  68.4399836  62.8230226  48.6317344  69.0993046  62.7388769
  47.4187215  68.7849534  63.2946629  48.0538068  68.5881777  62.8802983
  39.4807325  60.4297440  78.0123834  38.6707101  60.7355220  77.9013676
  39.9582012  61.1503022  78.1276418  39.4310804  60.5812041  78.0130905
  38.3398885  69.6443161  68.2606737  37.8179638  69.7843453  68.9458602
  38.7272905  68.8853825  68.4508854  38.3202586  69.5528685  68.3907813
  35.3290069  59.6948970  62.3301692  35.0414865  59.3250240  61.5933639
  36.0160537  60.1643825  62.0685397  35.3878966  59.7095939  62.1816767
  44.5365890  71.3838620  62.2467306  44.2952566  70.6506481  61.8394371
  44.7167223  71.9325477  61.5933639  44.5273514  71.3561011  62.0897529
  39.7665210  66.6747180  63.6588228  39.5707993  67.2821915  63.0648531
  39.9899556  65.9815124  63.1779902  39.7699851  66.6624706  63.5004309
  38.1643740  63.5601918  63.7769096  38.8866392  63.7243076  63.3172902
  37.6851733  64.2811583  63.6708436  38.2007471  63.6900148  63.6934710
  46.1237248  59.8965717  69.1565781  45.2848349  59.9226996  68.9204045
  46.1941615  60.5436452  69.7371128  46.0105641  59.9961843  69.2074898
  35.8151357  65.9659990  72.8823236  36.3272454  66.2444244  72.2331996
  35.5287700  66.7049284  73.2486049  35.8486220  66.1162344  72.8413114
  44.5706526  56.7951094  63.8893397  45.2732879  56.5958842  63.4113355
  44.3050715  56.0227036  64.1962241  44.6353159  56.6514060  63.8638839
  49.9994772  65.1033704  66.4427023  49.9128746  65.2589130  67.2961802
  49.5445252  65.7471779  66.0686428  49.9198028  65.2209459  66.5134130
  32.9018263  60.4730182  63.1786973  33.0034400  61.2756344  63.5067948
  33.6974150  60.2717518  62.8810053  33.0346169  60.5616081  63.1822328
  39.3335082  58.0586379  72.9424278  39.1418280  58.0741513  73.7923701
  40.1833678  58.2550053  72.9190933  39.4310804  58.0900730  73.0647573
  33.7181995  60.5877360  70.9208094  33.5767487  59.7361301  71.0452602
  34.0022559  60.6306021  70.0970300  33.7389842  60.4677111  70.8175718
  43.8720588  62.4244451  65.0652582  43.6255302  62.3440202  65.8989371
  44.2005711  61.6397919  64.8715110  43.8841831  62.2970716  65.1600106
  47.7668637  69.1327810  68.8539364  47.6282996  69.8308856  69.3588106
  46.9868635  68.9776467  68.4975546  47.6311864  69.2127977  68.8765638
  46.1046722  65.4324185  75.1061745  46.0994760  64.5604002  75.1104172
  46.8107716  65.6312355  74.6331201  46.2091726  65.3328060  75.0368781
  39.8317615  65.1601169  74.4775566  39.9760991  65.7402377  73.8418676
  40.1793264  65.5377466  75.1825420  39.9045076  65.3021873  74.4874561
  42.0037532  64.3591338  72.2600697  41.2560847  64.5522352  71.8548975
  42.1579058  63.5336557  72.0224818  41.9159960  64.2656449  72.1646103
  38.9045370  73.3503941  71.3436592  39.0534934  72.7906857  70.6909997
  39.6845372  73.4295943  71.7269111  39.0419464  73.2789507  71.3033542
  49.2622010  68.4906064  59.6155863  48.8828818  67.7043202  59.6085152
  48.5988255  69.0392921  59.4727507  49.1080484  68.4550888  59.5936660
  42.2439310  58.2541888  73.1496101  42.7011924  58.9865863  73.2768893
  42.3195638  57.8308354  73.9083357  42.3230279  58.2999126  73.2797177
  34.4872301  58.5007708  74.2385545  33.9514490  57.8888066  74.5546312
  34.5490065  59.0755844  74.8919211  34.4167933  58.4954636  74.3820971
  46.7166635  51.4331764  67.0189944  46.8350204  51.8908227  66.2857247
  46.5428811  50.6277025  66.7326161  46.7085806  51.3825536  66.8690877
  42.0868918  72.0419583  63.4544689  42.8518809  71.7729227  63.1327353
  41.9847008  71.5569593  64.1714752  42.1850413  71.9309148  63.5124517
  40.1221687  60.2443992  69.9937925  39.3317762  60.0635452  70.3155261
  40.5182310  59.4670945  69.9768219  40.0638564  60.1031453  70.0390473
  44.6087578  69.0731767  55.4344639  45.3760563  69.1331892  55.0250490
  44.1618887  68.5012208  54.9500957  44.6561005  68.9968342  55.3022349
  45.5065374  67.8786422  67.7197371  44.8310376  67.6471655  68.2210758
  45.5157750  67.2707605  67.0939476  45.4083878  67.7545348  67.7013523
  42.6359518  62.7204251  74.4761424  42.5718659  63.5814208  74.3481561
  42.7756705  62.4036245  73.6756975  42.6474988  62.8004418  74.3389637
  47.5082108  70.7351555  59.9507549  47.5901946  71.5418541  59.6269000
  47.9931851  70.7547514  60.6748322  47.5919266  70.8572217  60.0094447
  41.3178612  65.4136391  68.6177627  40.8940861  65.6140890  67.8816645
  41.1423467  64.5665239  68.7301927  41.2289492  65.3185172  68.5251317
  40.8190305  76.9286904  71.0799084  41.3086235  76.2297693  70.8974749
  40.2474537  76.6310774  71.6675141  40.8074835  76.7813127  71.1400125
  36.6061057  65.9088442  64.0505599  36.7625676  65.8435245  64.9061591
  36.9461650  66.6836995  63.8384279  36.6794291  66.0137640  64.1460193
  43.1440201  65.2846326  62.9198962  43.6855747  64.7816707  63.3837583
  43.4586760  65.2311520  62.1088448  43.2704598  65.2025747  62.8682775
  41.3126651  70.6763677  60.2038990  41.3819471  69.8178216  60.3431991
  42.0915106  70.8935558  59.8758015  41.4379501  70.5816541  60.1756148
  44.2929471  60.1782630  72.9721263  44.5071440  59.5393544  72.4184617
  43.6763370  60.6228454  72.5429125  44.2334800  60.1492774  72.8271694
  45.7034138  73.1001379  64.4175484  45.3113930  72.7968094  63.6998350
  45.8587211  73.9370469  64.2280438  45.6687728  73.1785215  64.2831981
  33.1795318  63.0923393  64.3666366  33.5594283  63.5107938  63.7026634
  32.6050683  63.6736848  64.6735210  33.1506643  63.2401251  64.3143107
  46.4568559  61.7871695  73.9104570  45.6445240  61.4797586  73.9917743
  46.9158493  61.3070696  74.4747282  46.4048943  61.6708188  74.0059164
  45.8673813  69.6651367  64.3581514  45.5088468  69.8366010  65.1345547
  45.3812524  70.1264573  63.8009513  45.7432510  69.7590339  64.3906783
  43.6844199  53.2882566  67.9608606  42.8137757  53.2621287  67.9141915
  43.9384540  53.1159758  67.1434451  43.5937759  53.2592710  67.8328742
  40.6562179  65.3450533  56.8981749  40.9454703  66.1215415  57.1725323
  40.7433978  64.8339264  57.5996248  40.7116435  65.3842451  57.0424247
  40.7093340  55.2988794  69.4182076  40.1931828  54.6068986  69.5433655
  40.1487269  55.9659571  69.3644675  40.5499853  55.2952052  69.4288142
  42.7785573  55.8381754  71.2474929  42.3917326  55.8630786  72.0288459
  42.2918510  55.2723433  70.7949445  42.6498082  55.7577505  71.2962832
  48.7535553  62.4044409  69.8714631  48.3263161  62.3170758  69.1162730
  48.1161606  62.5122185  70.4569475  48.5965160  62.4077069  69.8460072
  42.4442715  52.7248740  73.5385189  43.0735833  53.2609040  73.2606259
  42.6128578  52.6326099  74.3898754  42.5620509  52.7910102  73.6233717
  42.2456630  57.5119935  75.8111600  43.0730059  57.2405083  75.8670215
  42.2664476  58.3080776  76.1675418  42.3709480  57.5899689  75.8726783
  47.0832809  71.2475072  71.9454072  47.8725187  70.8964136  72.0656154
  47.2576407  72.0611460  71.6830706  47.2253091  71.3160929  71.9241940
  36.8226120  64.6583797  68.9981861  35.9814126  64.5587672  69.2060755
  37.0316128  65.4279278  69.3496182  36.7290812  64.7575841  69.0809176
  34.3001687  62.2803334  66.8266612  33.9058384  62.3546346  66.0516721
  33.7441803  62.6661281  67.3774973  34.1604499  62.3485109  66.7934271
  45.9366633  55.2584628  66.5070490  46.1416227  55.1906936  67.3527488
  45.6093057  56.0643450  66.4391668  45.9181881  55.3670569  66.6230146
  40.6342784  62.5865197  68.2479458  40.3305922  62.0321185  68.8489866
  39.9322205  62.7657407  67.7607493  40.4858994  62.5309979  68.2649164
  39.6908882  59.8965716  62.8124160  39.9668616  59.1784629  62.4001728
  40.2907551  60.4950636  62.6045266  39.8202146  59.8786087  62.7204921
  38.6961136  69.8014917  72.9551556  38.5881490  69.8116979  73.8213614
  38.9056917  70.6269698  72.7656510  38.7111247  69.9255992  73.0555648
  49.1900321  55.8116393  65.9873256  48.5774635  56.2986795  66.3726988
  49.2864496  55.1359883  66.5310907  49.1138219  55.7834701  66.1252114
  43.1919402  57.5679234  61.0870755  43.6463149  57.7389794  61.8118600
  43.6659448  56.9547344  60.6868531  43.3287722  57.5030119  61.1344517
  36.7134927  67.0527560  70.4173494  36.1222861  67.6937058  70.3876509
  37.4755951  67.4765177  70.3904793  36.7383188  67.2103398  70.4088641
  37.1095550  58.2129557  71.0841511  37.5697032  58.2868487  71.8216635
  37.1551657  59.0110812  70.7341333  37.1846106  58.3423705  71.1414268
  38.7578900  58.8796252  75.6513538  38.3664465  58.2329599  76.0869316
  38.9264763  59.4707688  76.2707794  38.7249810  58.8710520  75.8076244
  52.8325349  66.8833329  71.4150772  52.8908473  67.3319978  72.1610749
  52.1991817  67.2932142  70.9780852  52.7476644  67.0107064  71.4603320
  46.4724444  72.5036871  67.8505518  46.2744132  72.9927686  67.1561730
  45.8512155  72.7078113  68.4289652  46.3512008  72.6053410  67.8328741
  40.5332422  64.2721768  62.1915762  41.2774467  64.6596044  62.4298712
  40.6793118  63.4279193  62.3556250  40.6643007  64.2052241  62.2509732
  42.4511998  56.0672027  67.2247624  41.6048043  56.2394835  67.0988974
  42.4483130  55.2621371  67.5613452  42.3259147  55.9733056  67.2558751
  43.5210298  59.8447241  68.0909682  43.0470252  59.3189003  68.6014993
  43.8928434  59.2976714  67.5224543  43.5060187  59.6863238  68.0824829
  33.8983328  61.8418748  73.4593228  34.7608941  61.7414457  73.3730557
  33.5675111  61.2613457  72.8978800  33.9768524  61.7410375  73.3638633
  49.7847029  64.9049617  69.5016462  49.5445251  64.0656032  69.5058889
  50.2639036  64.9849784  70.2257236  49.8199212  64.7931017  69.6091265
  45.4493798  60.7383796  61.1535436  44.9216816  60.8212540  60.4641144
  45.9089506  61.4801667  61.1500080  45.4395648  60.8604458  61.0510131
  51.7852216  61.6851074  67.4545721  51.5461986  61.6446908  66.6166506
  51.9486117  62.5322226  67.5811443  51.7742519  61.8043159  67.3499203
  48.3898246  66.0701024  73.3850767  49.1132445  65.6173550  73.2061786
  48.1248208  66.3505689  72.6023094  48.4579519  66.0451992  73.2429482
  37.2585114  60.6661197  70.1203646  36.6338184  60.6779589  69.5129598
  36.9230709  61.1421372  70.7694886  37.1170606  60.7379714  70.1260214
  37.4426863  59.0086316  56.1776331  37.0939667  59.6606041  56.6407880
  36.9623309  58.9943429  55.4500202  37.3197107  59.1029369  56.1387422
  33.9710790  68.7261657  71.5607410  33.4410714  68.0354096  71.6102385
  34.2435883  68.7171843  70.7320119  33.9335512  68.6228789  71.4454826
  45.0030880  69.3087360  60.2845093  45.7265079  69.7745473  60.1409666
  44.5631471  69.3760969  59.5342690  45.0446572  69.3871196  60.1529874
  44.1717035  66.1684902  71.5345782  43.5574028  65.6242952  71.8294417
  44.6884320  65.6549138  71.0551598  44.1572698  66.0121311  71.5070010
  43.4113332  67.2389172  69.2690080  42.9840940  66.6138891  68.8355516
  43.4038277  66.9564094  70.0949087  43.3472474  67.1041953  69.3269908
  36.5275859  62.2754345  72.3378514  36.6869346  61.5197669  72.7430236
  36.3468753  62.8245284  72.9919252  36.5241218  62.2448159  72.4941220
  44.4696162  54.4415580  72.8929304  43.9736724  54.6379255  72.2020870
  45.2265224  54.8408249  72.7218105  44.5082987  54.5293314  72.7649440
  41.7399042  58.1157926  69.4832614  41.7641529  57.5818039  68.7945394
  41.9910516  57.6075235  70.1458205  41.7808961  57.9618830  69.4797259
  29.2506632  65.3989421  68.9175758  29.1450081  65.3536266  68.0527842
  28.5006852  65.7443202  69.1990043  29.1242235  65.4430330  68.8313088
  38.0200364  56.8428745  68.8638359  38.0598736  57.3437951  69.5773066
  37.1950029  56.9339138  68.5944282  37.9039890  56.9310561  68.9288897
  40.2029977  66.4089485  76.9658653  39.3525608  66.5461199  77.1016298
  40.3658105  65.6753263  77.4106355  40.1013841  66.3203586  77.0514252
  39.4414728  63.3589254  71.1612258  38.6106657  63.5263072  70.9547506
  39.3866245  62.9825205  71.9461143  39.3104143  63.3278986  71.2460786
  37.2498511  56.8498147  76.7968668  37.8751214  56.3060280  77.0698101
  36.7948991  56.3693065  76.2276459  37.2746772  56.6987629  76.7530262
  37.8150771  61.6344846  61.6902375  37.9553733  62.1317310  62.3931017
  38.3133304  60.9331140  61.8316589  37.9091852  61.6046825  61.8153954
  37.8450994  62.5011957  59.0194952  38.4796073  63.0972382  58.9544414
  37.9276605  62.2015415  59.8340822  37.9507545  62.5452865  59.1298039
  50.8233560  65.0327434  71.8881316  51.4151400  65.6724685  71.9199514
  51.2592554  64.3350471  72.1773383  50.9751991  65.0245785  71.9362149
  39.4229977  58.4325932  58.9940394  39.7445818  57.9529015  58.3399656
  39.6856920  59.2425579  58.8031206  39.5096002  58.4815830  58.8695886
  42.6526949  69.4544807  72.5139210  42.1452041  70.0080654  72.9579841
  42.3553596  69.5153097  71.6957985  42.5331834  69.5451118  72.4587667
  44.8189132  57.8198126  71.3563873  45.2444203  57.3670653  70.7447400
  44.2046125  57.2658197  71.6328661  44.7917777  57.6712103  71.3068898
  34.3503982  64.6979798  62.2884498  34.8596211  65.2944305  62.6695804
  34.8238254  64.4305771  61.6060918  34.4947357  64.7465613  62.2439021
  45.2634730  73.3708064  60.4443154  44.5464040  73.1968927  59.9790391
  45.9141467  73.1360637  59.9118640  45.2536580  73.3103857  60.2972372
  43.2583355  54.2913226  64.7654450  42.6151672  54.1410873  65.3339589
  42.9182762  54.0455571  64.0003555  43.1128432  54.2325349  64.7357465
  47.8482701  62.2472653  64.1884459  47.1773891  62.7902355  64.0597524
  48.5422451  62.7167508  63.9466154  47.8511569  62.3970924  64.1339987
  41.8969435  74.3869365  69.4196217  41.6735089  73.6288194  69.7880243
  41.4079278  74.4167386  68.6976657  41.7912884  74.2791590  69.3672958
  48.0110828  58.7028537  67.0974832  48.3638439  58.2758260  67.7720631
  47.1525630  58.6179380  67.2275908  47.9360273  58.6273277  67.2169842
  36.7094513  61.3336056  65.1557679  35.9906503  61.7500189  65.4230542
  37.0806876  61.8990295  64.6049317  36.6586445  61.4785338  65.1140486
  46.0094094  61.9663905  71.0459674  45.9892022  61.7847200  71.8994453
  46.0573295  62.8375924  71.0219258  46.0128735  62.0680444  71.1682969
  43.9113186  73.7659908  67.6256918  43.5129469  73.8762179  66.8577739
  43.2964405  73.9741975  68.2083478  43.7612075  73.8133476  67.5988218
  42.4841088  60.3734056  60.4931058  41.8905927  60.6951053  59.9415625
  42.5216366  59.5275152  60.2852164  42.4015477  60.2958385  60.3813829
  49.4434889  53.8246948  68.0259145  48.9365753  53.1176088  67.9580322
  50.2402322  53.4940137  68.1560221  49.4862128  53.6720100  68.0358139
  45.3598904  60.3313561  63.9232808  45.1312597  60.3546262  63.0811166
  45.6196981  59.5071028  64.0427819  45.3645092  60.2129641  63.8158006
  39.6418133  62.1848034  73.5257908  39.1297036  61.5769217  73.8842940
  39.4697629  62.9004626  73.9931884  39.5407770  62.2011333  73.6474132
  34.4883848  60.6285609  76.1760270  34.3186438  61.2886984  75.6308477
  34.0449797  60.8392170  76.8972759  34.3983181  60.7571591  76.2021900
  38.4143667  58.8690107  65.2187004  38.8901033  59.2307187  64.5837185
  37.9132267  59.5246575  65.4987147  38.4109026  59.0184296  65.1663745
  51.6455029  68.3411875  61.0100009  52.0288634  69.0903231  61.2398106
  50.8499142  68.5877695  60.7511998  51.5848811  68.4881569  61.0057583
  43.5187203  60.1072278  75.9660164  44.0758633  59.8786088  75.3338629
  43.1948268  60.8677944  75.6895376  43.5533613  60.1856115  75.8316661
  31.3885912  63.5332475  71.4348760  30.8412632  62.8633120  71.5529628
  32.1778290  63.1662323  71.4992227  31.4238096  63.3797461  71.4617461
  41.2370320  63.1939932  76.9312171  41.9881647  63.5091609  77.2451725
  41.4292897  62.9919103  76.1046093  41.3761735  63.2107314  76.8555567
  40.4570320  61.0131307  58.5860388  40.8369285  61.0310936  57.8011503
  39.7162916  61.4585296  58.4651235  40.4039158  61.0813081  58.4523956
  48.0855611  59.3213498  64.1735967  48.0849837  59.1662155  65.0320243
  47.8811791  60.1676485  64.1177352  48.0555388  59.4234119  64.2923906
  30.1472882  62.7453282  68.5894783  29.9694643  62.2929891  69.3149699
  29.8591904  63.5479444  68.7733261  30.0785835  62.7975840  68.7238286
  45.8096463  64.0011000  67.8272173  46.3050128  63.2833995  67.7876194
  44.9996238  63.6981798  67.7126660  45.7640356  63.8508646  67.8045899
  41.2555074  67.8508813  59.9769178  40.4466397  67.5275487  59.9302487
  41.7629983  67.1442035  59.9097427  41.2104741  67.6990129  59.9599472
  31.8845351  65.2781006  65.7016542  31.0190871  65.2666697  65.5899313
  31.9844167  65.0911229  66.5487681  31.7719518  65.2487067  65.8105487
  47.8748282  66.7514687  70.5149302  48.3003353  66.2289109  69.9619727
  47.5105201  67.3495525  69.9937925  47.8834884  66.7624914  70.3558312
  37.5102361  75.0478905  69.2746648  37.8248920  75.8615293  69.2824429
  37.9195775  74.6629124  69.9428807  37.6170459  75.1107607  69.3750739
  44.4626881  70.4648952  66.8450460  44.9338059  71.1789214  67.0140445
  44.7987059  69.8647702  67.3810329  44.5821996  70.4820416  66.9482836
  41.3796376  55.2376422  73.8008554  41.5124282  54.4407416  74.1289530
  41.7641529  55.7642825  74.3806830  41.4552705  55.1976339  73.9352057
  45.1000827  70.2566886  73.6078152  44.5521773  69.6324769  73.3398218
  45.5613856  70.4461158  72.8922232  45.0868037  70.1925936  73.4628583
  44.4528731  52.1606748  70.3989648  43.6474695  52.0504478  70.7157486
  44.3235467  52.2619204  69.5419514  44.3148864  52.1590418  70.3197688
  47.9094692  58.3252240  70.9929345  47.3257680  58.8261447  70.5806912
  48.2298986  57.8181796  70.3593668  47.8707867  58.3244075  70.8387852
  40.4489491  57.2392835  61.2688019  41.2705185  57.4091148  61.0269714
  39.9859142  57.3940096  60.5454317  40.5020653  57.2874568  61.1259664
  39.0384823  55.2335597  72.0486448  39.5829236  54.8926724  72.6390790
  39.0921758  56.0921059  72.1907733  39.1273942  55.3090857  72.1568322
  34.8515381  68.9952013  68.9225256  35.4560239  68.9547847  68.2939077
  34.6442694  69.8423165  68.9529312  34.9104279  69.1140016  68.8341373
  44.6659154  71.2617958  70.1387494  45.4857527  71.1180924  70.4003789
  44.3853231  71.8864157  70.6803931  44.7455897  71.3328310  70.2575433
  30.0866664  67.9786631  68.7924179  29.9890942  67.1682902  69.1014236
  30.8695533  67.9578424  68.4070447  30.1882800  67.8553721  68.7811042
  54.1738588  87.9646549  59.0506079  53.8389957  88.6423470  58.6150301
  54.6865459  87.5751860  58.4622951  54.2004170  88.0071127  58.8992870
  43.4963429  83.5759858  65.5135638  43.2613613  82.7427510  65.4067907
  43.6349070  83.8564523  64.6996839  43.4819091  83.4943361  65.3777993
  45.7953516  75.7445588  68.4119946  45.1758548  75.1538236  68.2429961
  45.6937380  76.3357024  67.7784269  45.6891192  75.7449671  68.2924935
  52.8921412  77.4845130  62.7452409  53.5901577  77.6633258  63.2373872
  53.2073745  76.9615470  62.1222798  53.0416749  77.4338902  62.7254419
  51.0648276  72.8537527  66.8273683  50.7351606  73.3048670  66.1577382
  50.3893277  72.7753690  67.3746690  50.9158712  72.9088662  66.8096907
  56.6818684  82.2242756  59.6862970  56.5969979  83.0803723  59.8312538
  57.1703067  81.9487081  60.3545129  56.7407581  82.3100078  59.8065051
  58.2724683  68.8423050  65.0723294  57.9578124  69.5326528  65.5043716
  57.7551625  68.7867832  64.3708795  58.1489154  68.9357938  65.0320243
  57.6137117  78.8427551  61.1860705  57.0848589  79.0587184  61.8458011
  58.1362137  79.5363689  61.1061674  57.6125570  78.9770688  61.2716304
  49.5036725  82.7390767  59.9868173  48.9193940  83.2440799  60.3934037
  49.1006820  82.5133154  59.2464765  49.3576029  82.7799016  59.9373198
  53.9613939  78.9856420  58.4637093  54.2009943  79.1934403  57.6512436
  54.2829780  78.1813928  58.5726038  54.0451097  78.8970521  58.3597646
  49.2704230  70.9149815  62.3096631  50.0250198  71.2828132  62.0713681
  49.0931764  71.2889370  63.0775811  49.3558708  71.0248003  62.3881520
  47.6261294  73.3220134  59.0074744  47.4436868  73.5392015  58.1815737
  48.4886907  73.4359147  59.0633359  47.7265884  73.3710032  58.8929231
  53.3061014  70.3246545  62.0423768  54.0347174  70.1462500  61.5961924
  53.3955906  71.1664625  62.2530946  53.4267676  70.4230423  62.0077286
  47.1723321  76.5994307  57.5197217  46.4581499  76.3132486  57.9319650
  47.6567290  76.9390933  58.1603605  47.1382685  76.6075957  57.6752852
  54.3470639  85.1024261  57.8959025  54.7621788  84.7709285  57.2043521
  53.5162569  84.8693163  57.7679162  54.2858648  85.0195517  57.7749873
  57.0404029  81.3534820  57.0820227  56.9584192  81.4237007  57.9475214
  57.6783750  81.9164564  56.8903968  57.1223867  81.4473791  57.1810176
  55.4798251  73.2224009  66.6498846  54.7754577  72.7333194  66.8082765
  55.5283225  73.2346483  65.7787290  55.3828302  73.1513657  66.5438186
  39.1188732  78.3173395  65.0504089  39.2048983  77.9405264  65.8317619
  39.7464529  77.9433841  64.5724047  39.2245283  78.2058878  65.0949566
  54.1444140  81.3755275  60.0928833  54.9584778  81.6670167  59.9811605
  54.0803281  80.7215137  59.5187126  54.2546879  81.3220469  59.9917671
  50.6554863  80.0679082  59.5576035  51.0400016  79.8486788  60.3092580
  50.4066483  80.8942027  59.6877111  50.6756936  80.1577228  59.6877111
  48.3755300  71.7376018  64.8884815  47.5077726  71.8098618  64.9542425
  48.6630505  72.5398097  65.0772790  48.2895048  71.8670166  64.9259582
  47.9933242  83.9919908  62.8866622  48.7479210  84.3732947  63.1002084
  47.4003854  84.4431051  63.3413318  48.0169955  84.1148735  62.9849500
  46.3022652  75.2134278  62.3301692  46.0147448  74.8435548  61.5933639
  46.9893121  75.6829133  62.0685397  46.3611550  75.2281247  62.1816767
  50.7397794  82.1932488  63.6588228  50.5440577  82.8007223  63.0648531
  50.9632140  81.5000432  63.1779902  50.7432435  82.1810014  63.5004309
  49.1376324  79.0787226  63.7769096  49.8598976  79.2428384  63.3172902
  48.6584317  79.7996891  63.6708436  49.1740055  79.2085456  63.6934710
  55.5439110  72.3136402  63.8893397  56.2465463  72.1144150  63.4113355
  55.2783299  71.5412344  64.1962241  55.6085742  72.1699368  63.8638839
  43.8750847  75.9915490  63.1786973  43.9766983  76.7941652  63.5067948
  44.6706734  75.7902826  62.8810053  44.0078753  76.0801389  63.1822328
  60.2354593  84.0091372  59.6155863  59.8561402  83.2228510  59.6085152
  59.5720839  84.5578229  59.4727507  60.0813068  83.9736196  59.5936660
  57.6899219  66.9517072  67.0189944  57.8082787  67.4093535  66.2857247
  57.5161395  66.1462333  66.7326161  57.6818390  66.9010844  66.8690877
  55.5820162  84.5917075  55.4344639  56.3493147  84.6517200  55.0250490
  55.1351471  84.0197516  54.9500957  55.6293589  84.5153650  55.3022349
  47.5793640  81.4273750  64.0505599  47.7358259  81.3620553  64.9061591
  47.9194233  82.2022303  63.8384279  47.6526875  81.5322948  64.1460193
  54.1172785  80.8031634  62.9198962  54.6588330  80.3002015  63.3837583
  54.4319344  80.7496828  62.1088448  54.2437182  80.7211055  62.8682775
  52.2859234  86.1948985  60.2038990  52.3552055  85.3363524  60.3431991
  53.0647690  86.4120866  59.8758015  52.4112085  86.1001849  60.1756148
  44.1527902  78.6108701  64.3666366  44.5326867  79.0293246  63.7026634
  43.5783266  79.1922156  64.6735210  44.1239227  78.7586559  64.3143107
  54.6576783  68.8067874  67.9608606  53.7870341  68.7806595  67.9141915
  54.9117124  68.6345066  67.1434451  54.5670343  68.7778018  67.8328742
  51.6294762  80.8635841  56.8981749  51.9187287  81.6400723  57.1725323
  51.7166561  80.3524572  57.5996248  51.6849018  80.9027759  57.0424247
  51.6825923  70.8174102  69.4182076  51.1664412  70.1254294  69.5433655
  51.1219852  71.4844879  69.3644675  51.5232437  70.8137360  69.4288142
  45.2734270  77.7988642  66.8266612  44.8790968  77.8731654  66.0516721
  44.7174387  78.1846589  67.3774973  45.1337083  77.8670417  66.7934271
  56.9099217  70.7769936  66.5070490  57.1148810  70.7092244  67.3527488
  56.5825641  71.5828758  66.4391668  56.8914465  70.8855877  66.6230146
  50.6641465  75.4151024  62.8124160  50.9401200  74.6969937  62.4001728
  51.2640134  76.0135944  62.6045266  50.7934730  75.3971395  62.7204921
  60.1632905  71.3301701  65.9873256  59.5507218  71.8172103  66.3726988
  60.2597080  70.6545191  66.5310907  60.0870802  71.3020009  66.1252114
  54.1651986  73.0864542  61.0870755  54.6195732  73.2575102  61.8118600
  54.6392031  72.4732652  60.6868531  54.3020306  73.0215427  61.1344517
  51.5065006  79.7907076  62.1915762  52.2507051  80.1781352  62.4298712
  51.6525702  78.9464501  62.3556250  51.6375591  79.7237549  62.2509732
  53.4244581  71.5857335  67.2247624  52.5780626  71.7580143  67.0988974
  53.4215714  70.7806679  67.5613452  53.2991731  71.4918364  67.2558751
  56.4226381  76.2569104  61.1535436  55.8949400  76.3397848  60.4641144
  56.8822089  76.9986975  61.1500080  56.4128232  76.3789766  61.0510131
  48.4159446  74.5271624  56.1776331  48.0672251  75.1791349  56.6407880
  47.9355892  74.5128737  55.4500202  48.2929690  74.6214677  56.1387422
  55.9763464  84.8272668  60.2845093  56.6997663  85.2930781  60.1409666
  55.5364055  84.8946277  59.5342690  56.0179156  84.9056504  60.1529874
  40.2239215  80.9174729  68.9175758  40.1182665  80.8721574  68.0527842
  39.4739435  81.2628510  69.1990043  40.0974818  80.9615637  68.8313088
  48.9932948  72.3614053  68.8638359  49.0331319  72.8623259  69.5773066
  48.1682612  72.4524446  68.5944282  48.8772474  72.4495869  68.9288897
  48.7883355  77.1530154  61.6902375  48.9286316  77.6502618  62.3931017
  49.2865888  76.4516448  61.8316589  48.8824436  77.1232133  61.8153954
  48.8183577  78.0197265  59.0194952  49.4528657  78.6157690  58.9544414
  48.9009188  77.7200723  59.8340822  48.9240128  78.0638173  59.1298039
  50.3962560  73.9511240  58.9940394  50.7178401  73.4714323  58.3399656
  50.6589504  74.7610886  58.8031206  50.4828586  74.0001138  58.8695886
  54.2315938  69.8098534  64.7654450  53.5884256  69.6596180  65.3339589
  53.8915345  69.5640879  64.0003555  54.0861015  69.7510657  64.7357465
  47.6827097  76.8521364  65.1557679  46.9639086  77.2685497  65.4230542
  48.0539459  77.4175603  64.6049317  47.6319029  76.9970646  65.1140486
  53.4573671  75.8919364  60.4931058  52.8638511  76.2136361  59.9415625
  53.4948949  75.0460460  60.2852164  53.3748061  75.8143692  60.3813829
  56.3331488  75.8498869  63.9232808  56.1045181  75.8731570  63.0811166
  56.5929564  75.0256336  64.0427819  56.3377676  75.7314949  63.8158006
  49.3876250  74.3875415  65.2187004  49.8633617  74.7492495  64.5837185
  48.8864850  75.0431883  65.4987147  49.3841609  74.5369604  65.1663745
  51.4302904  76.5316615  58.5860388  51.8101868  76.5496244  57.8011503
  50.6895500  76.9770604  58.4651235  51.3771741  76.5998389  58.4523956
  59.0588194  74.8398806  64.1735967  59.0582421  74.6847463  65.0320243
  58.8544374  75.6861793  64.1177352  59.0287972  74.9419427  64.2923906
  41.1205465  78.2638590  68.5894783  40.9427226  77.8115199  69.3149699
  40.8324487  79.0664752  68.7733261  41.0518418  78.3161148  68.7238286
  52.2287658  83.3694121  59.9769178  51.4198980  83.0460795  59.9302487
  52.7362567  82.6627343  59.9097427  52.1837325  83.2175437  59.9599472
  42.8577935  80.7966314  65.7016542  41.9923454  80.7852005  65.5899313
  42.9576751  80.6096537  66.5487681  42.7452102  80.7672375  65.8105487
  55.4261315  67.6792056  70.3989648  54.6207278  67.5689786  70.7157486
  55.2968050  67.7804512  69.5419514  55.2881448  67.6775726  70.3197688
  51.4222074  72.7578143  61.2688019  52.2437769  72.9276456  61.0269714
  50.9591725  72.9125404  60.5454317  51.4753237  72.8059876  61.1259664
  27.9125877   9.3005018  50.0370417  27.8819882  10.1549654  50.2088686
  28.5107226   9.0000310  50.5956560  27.9963035   9.3821514  50.1445219
  21.1125562   8.3880669  54.7923347  20.2563458   8.5489167  54.8432464
  21.1593216   7.5172733  54.8128408  20.9924673   8.2831470  54.8029413
  15.4966702  17.9243386  50.5560579  14.7449601  17.5458925  50.3276624
  15.9452713  17.9561820  49.8079389  15.4516369  17.8728994  50.4118081
  24.4219279  14.6567194  64.3983803  25.1286046  14.1619225  64.5270738
  24.6107214  15.0976276  63.6686461  24.5547184  14.6485545  64.3092849
  20.9491662  18.3468756  45.9846126  20.6143030  19.0245678  45.5490348
  21.4618532  17.9574067  45.3962997  20.9757243  18.3893334  45.8332917
  20.4895953  20.2983025  51.9257237  20.8735332  20.8669923  51.3862013
  20.4255094  19.5732535  51.4463053  20.5369380  20.2758488  51.7751100
  23.9577383  10.4472713  57.4354999  24.5033343  11.1257799  57.4948968
  23.8994259  10.3060173  56.5756580  24.0293297  10.5264714  57.3167059
  17.0751458  17.9361779  52.8223351  17.1761821  17.1262133  53.1320479
  16.4793203  17.8418725  52.1923030  17.0023997  17.8026807  52.7749590
  25.7342452  11.8757320  48.3088727  25.6181978  12.6265006  48.7380865
  26.5298338  11.6181273  48.5584814  25.8347041  11.9492167  48.4092818
  16.9152198  22.8539368  54.2238207  17.5589653  23.2952532  54.6134366
  17.2408453  22.0492794  54.1368466  17.0584026  22.8004563  54.2683685
  10.2716502  13.9582065  52.4475685  10.0366687  13.1249718  52.3407954
  10.4102143  14.2386731  51.6336886  10.2572165  13.8765569  52.3118040
  12.5706590   6.1267796  55.3459993  11.9511621   5.5360443  55.1770007
  12.4690453   6.7179231  54.7124316  12.4644265   6.1271878  55.2264982
  17.6172777  15.8651343  49.5958069  17.9388618  16.4056550  48.9919377
  18.2644874  15.2948114  49.7280359  17.7598832  15.8610518  49.5265104
  19.6674485   7.8667338  49.6792456  20.3654650   8.0455465  50.1713919
  19.9826818   7.3437677  49.0562845  19.8169822   7.8161110  49.6594466
  12.2975723   9.6720077  57.5903562  12.1734420  10.2582523  58.2253380
  12.9494007   9.1780273  57.8915837  12.3749372   9.6858882  57.7289491
  19.8562421  14.2537783  49.6672247  20.2956056  13.6454883  50.1127020
  19.7067084  13.8745156  48.8957712  19.8983886  14.1076254  49.6191415
  17.3234064  12.8481794  56.8691073  17.9683066  12.3554238  56.5502021
  17.5635841  12.9906581  57.6957151  17.4544649  12.7959237  56.9440606
  19.8620155  15.6936700  56.5197965  20.1443398  14.8988106  56.2984721
  20.5906315  16.1717288  56.5403026  20.0109719  15.6471297  56.4900980
  17.8401349   3.2359734  53.7613730  17.5104679   3.6870878  53.0917429
  17.1646351   3.1575898  54.3086737  17.6911785   3.2910869  53.7436954
  23.4571757  12.6064964  46.6203016  23.3723052  13.4625931  46.7652585
  23.9456140  12.3309288  47.2885175  23.5160655  12.6922285  46.7405098
  25.0477757  -0.7754743  52.0063341  24.7331198  -0.0851264  52.4383763
  24.5304698  -0.8309961  51.3048842  24.9242227  -0.6819854  51.9660290
  24.3890190   9.2249758  48.1200751  23.8601662   9.4409392  48.7798058
  24.9115210   9.9185897  48.0401721  24.3878643   9.3592895  48.2056351
  29.8438243  14.7996062  53.4933796  29.0135946  15.0106706  53.6567213
  29.7947496  13.9733117  53.2176080  29.7144979  14.7085669  53.4771161
  16.2789798  13.1212975  46.9208219  15.6947013  13.6263006  47.3274083
  15.8759893  12.8955362  46.1804811  16.1329102  13.1621223  46.8713245
  11.8333827  18.8367736  53.7231891  11.3501405  19.5618226  53.6991475
  12.6457145  19.1343866  53.8342049  11.8824575  18.9870090  53.7359170
  17.9047981  17.6299917  56.3281705  17.3874923  17.2707332  55.7243014
  18.6022372  17.1062091  56.3387772  17.9313562  17.4997605  56.2411964
  21.5611573  18.0794731  62.2897879  21.6494919  17.8920871  63.1376089
  21.9901285  17.4332160  61.8902725  21.6373675  17.9557738  62.3569630
  19.1282033  17.3625891  61.2715541  18.5652867  16.9498501  61.7955202
  19.8903056  17.2878796  61.6908684  19.1576481  17.2903291  61.4108541
  20.7367013   9.3678627  45.3977140  20.9763016   9.5756611  44.5852483
  21.0582854   8.5636136  45.5066085  20.8204171   9.2792728  45.2937693
  14.6878024  19.3523912  53.8752171  15.3898603  18.8375901  53.9324927
  14.6075507  19.6798063  54.6799046  14.7801785  19.3238138  54.0024963
  29.3392202   7.4466463  57.2884217  28.5020623   7.5168650  57.5231812
  29.3080433   7.4490958  56.4158520  29.2110484   7.4576690  57.1943765
  14.4014368   3.7042342  45.9414791  14.2189941   3.9214222  45.1155784
  15.2639981   3.8181354  45.9973405  14.5018957   3.7532240  45.8269278
  14.0128800  15.5430264  53.3837779  14.8517699  15.7753197  53.4311540
  14.0440569  14.6734575  53.3144814  14.1410517  15.4487210  53.3802424
  14.6381503  15.9631139  57.6851084  15.1779728  15.8202270  58.3554457
  13.9551449  16.3627890  58.0535111  14.6173656  16.0010810  57.8385506
  20.0814087   0.7068752  48.9763815  20.8100247   0.5284707  48.5301971
  20.1708980   1.5486832  49.1870993  20.2020749   0.8052631  48.9417332
  24.0622387  11.6422140  52.8796109  24.8179902  12.0753654  52.9185018
  24.1684712  10.9926909  53.4530745  24.1892558  11.6099624  52.9694134
  27.1002559  15.4695417  53.6298512  26.6637790  15.4732159  54.3857483
  26.7665474  16.1500916  53.1978089  26.9865179  15.5707873  53.6779344
  21.6731632  17.5103750  64.9541662  22.4572049  17.6234598  65.3197404
  21.4728227  16.6844887  65.1500348  21.7597658  17.4050469  65.0376048
  10.0418648  12.1831430  57.8385506   9.7757063  11.3670547  57.9976496
  10.0557212  12.2284585  56.9681021  10.0043370  12.0688335  57.7338988
  27.0200041   2.5109245  55.8727940  27.6625950   2.5807349  56.4589855
  27.2723062   1.8438468  55.3707482  27.1522174   2.4235593  55.8855219
  13.9476395   6.9816514  44.4537264  13.2334572   6.6954694  44.8659697
  14.4320363   7.3213140  45.0943652  13.9135758   6.9898164  44.6092899
  21.8302026  19.4213852  58.6008118  21.0317271  19.1813352  58.8581986
  22.2788037  19.4728245  59.3475165  21.7776637  19.3936243  58.7493042
  30.2346905  12.1876337  52.5218149  30.8963339  11.6267005  52.4214057
  29.5938317  11.6928368  52.8470840  30.2375772  12.0312746  52.5550489
  21.1223713  15.4846468  44.8299072  21.5374861  15.1531492  44.1383568
  20.2915642  15.2515370  44.7019209  21.0611721  15.4017724  44.7089920
  10.4512061  12.9690209  55.1197250  10.2687635  12.9437095  54.2669542
  11.1861730  13.4389147  55.1586159  10.5326125  13.0351571  54.9995169
  26.5211735  13.2041719  52.2630138  26.7567325  13.3486918  51.4356988
  26.6701299  13.9684127  52.6561651  26.5777539  13.3380774  52.1993742
  13.5157813   9.6875212  61.6279359  14.2397785   9.6728243  62.1144254
  13.6173949  10.3970567  61.1301327  13.6376022   9.7899915  61.6258146
  28.3502192  12.0443385  50.0999742  28.6810409  12.5771025  49.4939836
  28.9235280  12.0982273  50.7561693  28.4835871  12.1312954  50.1077523
  20.8902762  13.1674297  66.4928306  20.0975743  13.4817809  66.6780926
  21.0051690  13.3825765  65.6549090  20.7898173  13.2458133  66.3966641
  23.5634081   9.8908288  50.7823322  23.6580936  10.6297582  51.2362947
  22.9392925   9.4625763  51.2157886  23.4843111   9.9369608  50.9131469
  21.8186555  13.0694500  61.4313603  22.3925417  12.4321745  61.5862166
  21.7401359  13.0698583  60.5623260  21.8919790  12.9759612  61.3260013
  10.4182972   9.8483710  55.2696317  10.9956474   9.7120161  55.9088562
   9.7197033   9.3919494  55.5241901  10.4003993   9.7605976  55.4018606
  23.8157103  11.7357028  44.0160274  23.7337265  11.8059215  44.8815261
  24.4536823  12.2986772  43.8244014  23.8976940  11.8295999  44.1150223
  17.1750274  11.5017766  53.4834800  16.9169518  10.6689500  53.4566099
  17.2298757  11.7275379  52.6427300  17.1450052  11.4115537  53.3554937
  22.2551324   3.6046216  53.5838893  21.5507651   3.1155402  53.7422812
  22.3036298   3.6168691  52.7127337  22.1581376   3.5335864  53.4778232
  16.1484986   9.0555528  53.9699695  15.5734577   9.2147696  54.6063656
  15.7720662   8.4190937  53.5068145  16.0087798   8.9853341  53.9954253
  19.8158275   7.5278877  58.8292073  19.4272707   7.1033095  58.1744264
  19.1512973   7.7761027  59.3369100  19.6605202   7.5017598  58.8079941
  29.4581544   7.2853882  51.6039903  29.2018109   6.4733824  51.4137786
  30.3010858   7.2931449  51.3770091  29.5447569   7.1665879  51.5424720
  23.6384636   1.2253506  56.3416057  24.0195148   0.5431677  56.7283932
  22.8347920   0.9363108  56.1591722  23.5761098   1.0820555  56.3720113
  20.9197213  11.7577482  47.0268880  21.7337852  12.0492375  46.9151652
  20.8556354  11.1037344  46.4527173  21.0299952  11.7042677  46.9257717
  27.1406703  14.4403478  61.4398456  26.9045340  13.6091543  61.3210516
  27.7849932  14.3889085  62.0253300  27.2001374  14.3101166  61.5084349
  16.7905121  15.2298999  52.1541192  17.4279068  14.9910747  52.6992986
  17.2160193  15.4336158  51.4194353  16.9481287  15.2250010  52.1258350
  11.4817764  17.4687336  56.0375496  11.5221909  17.7402187  55.2095276
  12.0412288  17.9929244  56.4533284  11.5701109  17.5863091  55.9767384
  17.4307936  10.4501289  46.4916082  17.8153089  10.2308996  47.2432627
  17.1819556  11.2764235  46.6217158  17.4510009  10.5399435  46.6217158
  28.1643124  14.2247927  57.5026750  27.8588941  14.9575984  57.8640066
  27.4449339  13.8185856  57.2219536  28.0130466  14.2729660  57.5139887
  19.1726593  15.7071422  53.8334978  19.2465601  15.5446594  54.6876828
  19.9896099  15.8961612  53.5895460  19.3042952  15.7108164  53.9233004
  33.8644916  10.8640928  56.8295095  33.7969416  10.8836887  55.9597681
  33.8500578  11.7071255  57.0550765  33.8523672  10.9914662  56.7347571
  12.9332350  16.0529285  50.8629422  12.1070467  16.2991022  50.7363701
  12.9944341  15.9741366  51.7291480  12.8206517  16.0774234  50.9718366
  24.2741262   2.2676085  60.1536184  25.0194854   2.0785896  59.7399609
  23.8578567   2.7934323  59.5950040  24.3226237   2.3178231  60.0100757
  17.7131179  18.6706165  48.5648452  18.0029477  18.2795146  47.8407678
  18.4434660  18.8522870  49.0053727  17.8638063  18.6399979  48.5231259
  31.6503533   9.6385314  55.1041689  32.2011455   9.0053383  55.3438781
  31.6347649  10.1700707  55.7957193  31.7288729   9.6234262  55.2420547
  18.3025924  13.4723911  59.6501582  17.8037618  14.1839679  59.7286471
  19.1126148  13.7924578  59.6119745  18.3482031  13.6250760  59.6558151
  15.6537094  20.6473547  51.6308602  15.4337390  20.3570902  52.4235269
  15.4331616  19.9888503  51.1026514  15.5884689  20.5073256  51.6697510
  14.5654042  12.7346864  53.8964303  14.2767290  12.1084335  54.4310031
  15.4337390  12.6767151  53.9628984  14.6514293  12.6334408  53.9855258
  25.3531939   7.8781647  54.2146285  25.0096705   7.1571983  54.5653535
  25.4524982   7.6695499  53.3724643  25.3173982   7.7405851  54.1417965
  17.8205050  22.0202937  50.4139294  18.4729108  21.4879380  50.6430320
  17.1230659  21.6671590  50.8007168  17.8135768  21.8892460  50.5051462
  14.7686315  14.3742115  49.8206668  15.5232283  14.7555154  50.0342131
  14.1756928  14.8253259  50.2753365  14.7923029  14.4970942  49.9189547
  25.8144968  14.3407351  49.7570273  26.3803001  15.0000561  49.6728816
  25.1672872  14.6857050  50.2286675  25.8023725  14.4889293  49.8143030
  16.0884542  15.5450676  55.1946784  15.5665295  15.6850968  55.8798648
  16.4758562  14.7861341  55.3848901  16.0688242  15.4536200  55.3247860
  13.0775726   5.5956485  49.2641738  12.7900521   5.2257756  48.5273686
  13.7646194   6.0651340  49.0025443  13.1364623   5.6103454  49.1156814
  22.2851547  17.2846136  49.1807352  22.0438222  16.5513996  48.7734417
  22.4652879  17.8332993  48.5273686  22.2759171  17.2568527  49.0237575
  17.5150867  12.5754695  50.5928275  17.3193650  13.1829430  49.9988578
  17.7385213  11.8822639  50.1119949  17.5185508  12.5632221  50.4344356
  15.9129397   9.4609433  50.7109143  16.6352049   9.6250591  50.2512949
  15.4337390  10.1819098  50.6048483  15.9493128   9.5907663  50.6274757
  23.8722905   5.7973232  56.0905828  23.0334005   5.8234511  55.8544091
  23.9427272   6.4443968  56.6711175  23.7591298   5.8969358  56.1414945
  13.5637014  11.8667506  59.8163283  14.0758111  12.1451759  59.1672043
  13.2773356  12.6056800  60.1826096  13.5971877  12.0169859  59.7753161
  22.3192183   2.6958609  50.8233444  23.0218536   2.4966357  50.3453402
  22.0536372   1.9234552  51.1302287  22.3838815   2.5521575  50.7978886
  27.7480429  11.0041219  53.3767070  27.6614403  11.1596645  54.2301849
  27.2930909  11.6479294  53.0026475  27.6683685  11.1216974  53.4474177
  10.6503920   6.3737698  50.1127019  10.7520057   7.1763859  50.4407995
  11.4459807   6.1725034  49.8150100  10.7831826   6.4623596  50.1162375
  11.4667652   6.4884876  57.8548141  11.3253144   5.6368816  57.9792649
  11.7508216   6.5313536  57.0310347  11.4875498   6.3684626  57.7515765
  21.6206245   8.3251966  51.9992629  21.3740959   8.2447717  52.8329418
  21.9491368   7.5405434  51.8055157  21.6327488   8.1978231  52.0940152
  25.5154293  15.0335325  55.7879411  25.3768653  15.7316371  56.2928153
  24.7354291  14.8783982  55.4315592  25.3797520  15.1135492  55.8105685
  23.8532379  11.3331701  62.0401792  23.8480417  10.4611517  62.0444219
  24.5593372  11.5319870  61.5671248  23.9577383  11.2335575  61.9708828
  17.5803272  11.0608685  61.4115612  17.7246648  11.6409893  60.7758722
  17.9278920  11.4384981  62.1165467  17.6530733  11.2029389  61.4214607
  19.7523189  10.2598853  59.1940744  19.0046503  10.4529867  58.7889022
  19.9064715   9.4344073  58.9564865  19.6645617  10.1663964  59.0986150
  16.6531027  19.2511456  58.2776639  16.8020591  18.6914372  57.6250044
  17.4331029  19.3303458  58.6609158  16.7905121  19.1797022  58.2373588
  27.0107666  14.3913579  46.5495910  26.6314475  13.6050717  46.5425199
  26.3473912  14.9400436  46.4067554  26.8566141  14.3558403  46.5276707
  19.1784328  19.4226099  59.5561130  19.1027999  18.7534910  60.1111918
  19.1074187  20.1243887  60.0701796  19.1564934  19.4271007  59.7137978
  19.9924966   4.1549404  60.0836148  20.4497580   4.8873378  60.2108940
  20.0681295   3.7315869  60.8423404  20.0715936   4.2006642  60.2137224
  24.4652292  -2.6660721  53.9529991  24.5835860  -2.2084258  53.2197293
  24.2914468  -3.4715460  53.6666208  24.4571463  -2.7166949  53.8030924
  19.8354575  17.9427098  50.3884736  20.6004466  17.6736742  50.0667400
  19.7332664  17.4577109  51.1054799  19.9336070  17.8316663  50.4464564
  17.8707344   6.1451508  56.9277972  17.0803419   5.9642968  57.2495308
  18.2667967   5.3678460  56.9108266  17.8124220   6.0038969  56.9730520
  22.3573235  14.9739282  42.3684685  23.1246220  15.0339407  41.9590537
  21.9104544  14.4019723  41.8841004  22.4046662  14.8975858  42.2362396
  23.2551031  13.7793938  54.6537418  22.5796032  13.5479170  55.1550805
  23.2643407  13.1715121  54.0279523  23.1569535  13.6552863  54.6353570
  20.3845175   8.6211767  61.4101471  20.3204316   9.4821723  61.2821607
  20.5242362   8.3043760  60.6097022  20.3960645   8.7011933  61.2729684
  25.2567765  16.6359070  46.8847596  25.3387603  17.4426056  46.5609047
  25.7417507  16.6555029  47.6088369  25.3404923  16.7579733  46.9434494
  19.0664268  11.3143906  55.5517674  18.6426518  11.5148405  54.8156692
  18.8909124  10.4672754  55.6641973  18.9775149  11.2192688  55.4591364
  18.5675962  22.8294419  58.0139131  19.0571892  22.1305208  57.8314795
  17.9960194  22.5318289  58.6015188  18.5560492  22.6820643  58.0740172
  14.3546713  11.8095958  50.9845646  14.5111333  11.7442760  51.8401638
  14.6947306  12.5844510  50.7724326  14.4279948  11.9145156  51.0800240
  20.8925858  11.1853841  49.8539009  21.4341403  10.6824222  50.3177630
  21.2072417  11.1319036  49.0428495  21.0190255  11.1033262  49.8022821
  24.7642965  15.3956488  66.9665922  25.5777831  15.1241637  67.1271054
  24.6037932  15.0964028  66.1626117  24.8612914  15.3111414  66.8711327
  19.0612308  16.5771193  47.1379037  19.1305128  15.7185731  47.2772038
  19.8400763  16.7943074  46.8098062  19.1865158  16.4824057  47.1096195
  22.0415127   6.0790146  59.9061310  22.2557097   5.4401060  59.3524664
  21.4249027   6.5235969  59.4769172  21.9820457   6.0500289  59.7611741
  10.9280975   8.9930908  51.3006413  11.3079940   9.4115453  50.6366681
  10.3536340   9.5744364  51.6075257  10.8992300   9.1408767  51.2483154
  24.2054215   7.6879211  60.8444617  23.3930897   7.3805101  60.9257790
  24.6644150   7.2078211  61.4087329  24.1534600   7.5715703  60.9399211
  23.6159470  15.5658883  51.2921561  23.2574125  15.7373526  52.0685594
  23.1298181  16.0272088  50.7349560  23.4918167  15.6597854  51.3246830
  21.4329856  -0.8109919  54.8948653  20.5623414  -0.8371198  54.8481962
  21.6870197  -0.9832727  54.0774498  21.3423416  -0.8399775  54.7668789
  18.4047835  11.2458048  43.8321796  18.6940360  12.0222931  44.1065370
  18.4919634  10.7346780  44.5336295  18.4602092  11.2849967  43.9764293
  18.4578997   1.1996310  56.3522123  17.9417485   0.5076501  56.4773702
  17.8972925   1.8667087  56.2984722  18.2985510   1.1959567  56.3628189
  20.5271230   1.7389270  58.1814976  20.1402983   1.7638301  58.9628505
  20.0404167   1.1730948  57.7289492  20.3983739   1.6585021  58.2302879
  24.7764209  16.4562779  62.2388762  25.4143930  15.9622974  61.9051218
  24.1338301  16.3840179  61.6540989  24.7758436  16.3721787  62.1031117
  24.8318466  17.1482587  58.8794119  25.6210844  16.7971652  58.9996200
  25.0062064  17.9618975  58.6170753  24.9738748  17.2168444  58.8581987
  14.5711776  10.5591313  55.9321908  13.7299783  10.4595187  56.1400802
  14.7801784  11.3286793  56.2836228  14.4776469  10.6583356  56.0149223
  12.0487343   8.1810850  53.7606658  11.6544041   8.2553861  52.9856768
  11.4927460   8.5668796  54.3115020  11.9090156   8.2492624  53.7274318
  23.6852290   1.1592144  53.4410537  23.8901884   1.0914452  54.2867534
  23.3578714   1.9650965  53.3731715  23.6667538   1.2678084  53.5570192
  18.3828441   8.4872712  55.1819505  18.0791579   7.9328700  55.7829913
  17.6807862   8.6664922  54.6947539  18.2344651   8.4317494  55.1989211
  17.4394538   5.7973232  49.7464207  17.7154273   5.0792144  49.3341775
  18.0393208   6.3958152  49.5385313  17.5687803   5.7793602  49.6544968
  16.4446792  15.7022433  59.8891603  16.3367147  15.7124495  60.7553661
  16.6542574  16.5277213  59.6996557  16.4596903  15.8263507  59.9895695
  26.9385978   1.7123908  52.9213303  26.3260291   2.1994310  53.3067035
  27.0350153   1.0367399  53.4650954  26.8623876   1.6842217  53.0592161
  20.9405059   3.4686749  48.0210802  21.3948805   3.6397309  48.7458647
  21.4145105   2.8554860  47.6208578  21.0773379   3.4037634  48.0684564
  14.4620584  12.9535075  57.3513541  13.8708518  13.5944573  57.3216556
  15.2241608  13.3772692  57.3244840  14.4868845  13.1110913  57.3428688
  14.8581207   4.1137073  58.0181558  15.3182689   4.1876002  58.7556682
  14.9037314   4.9118327  57.6681380  14.9331762   4.2431220  58.0754315
  30.5811006  12.7840845  58.3490819  30.6394130  13.2327493  59.0950795
  29.9477473  13.1939658  57.9120899  30.4962301  12.9114579  58.3943367
  24.2210101  18.4044387  54.7845565  24.0229789  18.8935201  54.0901776
  23.5997812  18.6085628  55.3629698  24.0997665  18.5060925  54.7668788
  18.2818079  10.1729283  49.1255809  19.0260124  10.5603560  49.3638759
  18.4278775   9.3286709  49.2896297  18.4128664  10.1059756  49.1849779
  20.1997654   1.9679542  54.1587671  19.3533699   2.1402350  54.0329021
  20.1968787   1.1628886  54.4953499  20.0744804   1.8740571  54.1898798
  21.2695955   5.7454757  55.0249729  20.7955909   5.2196519  55.5355040
  21.6414091   5.1984230  54.4564590  21.2545844   5.5870753  55.0164876
  27.5332685  10.8057132  56.4356509  27.2930908   9.9663548  56.4398936
  28.0124692  10.8857299  57.1597283  27.5684869  10.6938532  56.5431311
  23.1979454   6.6391311  48.0875482  22.6702473   6.7220055  47.3981191
  23.6575163   7.3809183  48.0840127  23.1881305   6.7611974  47.9850178
  29.5337872   7.5858590  54.3885768  29.2947642   7.5454424  53.5506553
  29.6971774   8.4329742  54.5151489  29.5228176   7.7050675  54.2839250
  26.1383902  11.9708539  60.3190813  26.8618101  11.5181065  60.1401833
  25.8733865  12.2513205  59.5363141  26.2065176  11.9459507  60.1769529
  15.0070771   6.5668712  57.0543693  14.3823841   6.5787104  56.4469645
  14.6716366   7.0428888  57.7034933  14.8656263   6.6387229  57.0600261
  15.1912520   4.9093831  43.1116378  14.8425324   5.5613556  43.5747927
  14.7108965   4.8950944  42.3840249  15.0682763   5.0036884  43.0727469
  11.7196446  14.6269173  58.4947457  11.1896371  13.9361611  58.5442432
  11.9921540  14.6179358  57.6660165  11.6821169  14.5236304  58.3794873
  22.7516537  15.2094875  47.2185139  23.4750736  15.6752988  47.0749713
  22.3117128  15.2768485  46.4682736  22.7932229  15.2878712  47.0869921
  21.9202692  12.0692417  58.4685828  21.3059685  11.5250467  58.7634464
  22.4369977  11.5556654  57.9891645  21.9058354  11.9128826  58.4410057
  21.1598989  13.1396687  56.2030127  20.7326597  12.5146406  55.7695563
  21.1523934  12.8571609  57.0289134  21.0958130  13.0049468  56.2609955
  14.2761516   8.1761860  59.2718561  14.4355003   7.4205184  59.6770283
  14.0954410   8.7252800  59.9259299  14.2726875   8.1455674  59.4281267
  22.2181819   0.3423096  59.8269351  21.7222380   0.5386770  59.1360917
  22.9750881   0.7415764  59.6558152  22.2568644   0.4300830  59.6989487
  19.4884699   4.0165442  56.4172661  19.5127186   3.4825554  55.7285441
  19.7396172   3.5082751  57.0798252  19.5294618   3.8626346  56.4137306
   6.9992289  11.2996937  55.8515805   6.8935738  11.2543781  54.9867889
   6.2492509  11.6450717  56.1330090   6.8727892  11.3437845  55.7653135
  15.7686021   2.7436260  55.7978405  15.8084393   3.2445467  56.5113113
  14.9435686   2.8346654  55.5284328  15.6525547   2.8318076  55.8628944
  17.9515634  12.3097000  63.8998700  17.1011264  12.4468714  64.0356345
  18.1143762  11.5760778  64.3446402  17.8499497  12.2211101  63.9854299
  17.1900384   9.2596770  58.0952304  16.3592314   9.4270588  57.8887553
  17.1351902   8.8832721  58.8801190  17.0589799   9.2286501  58.1800833
  15.5636428   7.5352361  48.6242422  15.7039389   8.0324826  49.3271064
  16.0618961   6.8338656  48.7656636  15.6577509   7.5054340  48.7494001
  15.5936651   8.4019472  45.9534999  16.2281730   8.9979897  45.8884461
  15.6762261   8.1022930  46.7680869  15.6993202   8.4460381  46.0638086
  28.5719216  10.9334950  58.8221363  29.1637057  11.5732200  58.8539561
  29.0078211  10.2357986  59.1113430  28.7237648  10.9253300  58.8702196
  17.1715634   4.3333448  45.9280441  17.4931475   3.8536530  45.2739703
  17.4342577   5.1433094  45.7371253  17.2581659   4.3823346  45.8035933
  20.4012606  15.3552322  59.4479257  19.8937697  15.9088169  59.8919888
  20.1039252  15.4160612  58.6298032  20.2817491  15.4458633  59.3927714
  22.5674788   3.7205642  58.2903920  22.9929860   3.2678168  57.6787446
  21.9531782   3.1665712  58.5668708  22.5403434   3.5719618  58.2408945
  12.0989639  10.5987313  49.2224545  12.6081868  11.1951821  49.6035851
  12.5723911  10.3313287  48.5400965  12.2433014  10.6473129  49.1779068
  23.0120387  19.2715580  47.3783201  22.2949696  19.0976442  46.9130438
  23.6627124  19.0368152  46.8458687  23.0022237  19.2111372  47.2312418
  21.0069011   0.1920742  51.6994497  20.3637329   0.0418388  52.2679636
  20.6668418  -0.0536913  50.9343602  20.8614089   0.1332864  51.6697512
  25.5968358   8.1480168  51.1224506  24.9259548   8.6909871  50.9937571
  26.2908108   8.6175024  50.8806200  25.5997225   8.2978440  51.0680033
  19.6455092  20.2876880  56.3536264  19.4220746  19.5295710  56.7220290
  19.1564935  20.3174902  55.6316704  19.5398541  20.1799105  56.3013005
  25.7596485   4.6036052  54.0314879  26.1124095   4.1765775  54.7060678
  24.9011287   4.5186896  54.1615955  25.6845930   4.5280793  54.1509889
  14.4580170   7.2343572  52.0897725  13.7392159   7.6507704  52.3570589
  14.8292533   7.7997810  51.5389364  14.4072102   7.3792853  52.0480532
  21.7026081  14.4558613  63.9048198  21.6621936  13.8108290  63.3193354
  22.5149399  14.3995230  64.2173610  21.8169234  14.3517579  63.8645147
  18.2933548  20.5077338  53.8073349  17.8793947  19.8451469  53.4177190
  18.9780923  20.6555197  53.2869043  18.3331920  20.4317997  53.6729846
  21.6598843  19.6667424  54.5596965  21.2615126  19.7769694  53.7917785
  21.0450062  19.8749490  55.1423525  21.5097732  19.7140992  54.5328265
  20.2326745   6.2741572  47.4271105  19.6391584   6.5958568  46.8755672
  20.2702022   5.4282667  47.2192211  20.1501134   6.1965900  47.3153876
  27.1920545  -0.2745536  54.9599191  26.6851410  -0.9816397  54.8920369
  27.9887979  -0.6052347  55.0900268  27.2347785  -0.4272385  54.9698186
  23.1084561   6.2321076  50.8572855  22.8798254   6.2553778  50.0151213
  23.3682637   5.4078543  50.9767866  23.1130749   6.1137156  50.7498053
  17.3903790   8.0855549  60.4597955  16.8782693   7.4776732  60.8182987
  17.2183286   8.8012142  60.9271931  17.2893427   8.1018848  60.5814179
  16.1629324   4.7697622  52.1527051  16.6386690   5.1314702  51.5177232
  15.6617923   5.4254090  52.4327194  16.1594683   4.9191811  52.1003792
  29.3940685  14.2419390  47.9440056  29.7774291  14.9910747  48.1738153
  28.5984799  14.4885210  47.6852045  29.3334468  14.3889084  47.9397629
  21.2672860   6.0079794  62.9000211  21.8244290   5.7793603  62.2678676
  20.9433925   6.7685459  62.6235423  21.3019270   6.0863630  62.7656708
   9.1371569   9.4339990  58.3688807   8.5898288   8.7640636  58.4869675
   9.9263947   9.0669838  58.4332274   9.1723753   9.2804976  58.3957507
  18.9855977   9.0947447  63.8652218  19.7367304   9.4099124  64.1791772
  19.1778554   8.8926618  63.0386140  19.1247391   9.1114829  63.7895614
  18.2055977   6.9138822  45.5200435  18.5854942   6.9318451  44.7351549
  17.4648573   7.3592811  45.3991282  18.1524815   6.9820597  45.3864003
  25.8341267   5.2221013  51.1076013  25.8335494   5.0669670  51.9660290
  25.6297447   6.0684000  51.0517399  25.8041045   5.3241634  51.2263953
   7.8958538   8.6460798  55.5234830   7.7180299   8.1937407  56.2489746
   7.6077560   9.4486959  55.7073308   7.8271492   8.6983356  55.6578333
  23.5582119   9.9018515  54.7612220  24.0535785   9.1841510  54.7216241
  22.7481895   9.5989313  54.6466707  23.5126013   9.7516161  54.7385946
  19.0040731  13.7516328  46.9109225  18.1952054  13.4283002  46.8642534
  19.5115640  13.0449551  46.8437473  18.9590398  13.5997645  46.8939519
   9.6331008  11.1788522  52.6356589   8.7676528  11.1674212  52.5239360
   9.7329824  10.9918744  53.4827728   9.5205175  11.1494583  52.7445533
  25.6233938  12.6522203  57.4489349  26.0489010  12.1296625  56.8959774
  25.2590858  13.2503040  56.9277972  25.6320541  12.6632430  57.2898359
  15.2588018  20.9486420  56.2086695  15.5734577  21.7622809  56.2164476
  15.6681431  20.5636639  56.8768854  15.3656116  21.0115123  56.3090786
  22.2112538  16.3656467  53.7790507  22.6823716  17.0796730  53.9480492
  22.5472716  15.7655217  54.3150376  22.3307653  16.3827931  53.8822882
  24.2989522  17.9757780  65.9582579  24.4086488  17.1866341  66.3139326
  24.6280419  17.8863717  65.1556917  24.3641928  17.8463633  65.8924969
  22.8486484  16.1574401  60.5418199  22.3007430  15.5332285  60.2738264
  23.3099513  16.3468673  59.8262279  22.8353694  16.0933451  60.3968630
  22.2014388  -1.9385736  57.3329695  21.3960352  -2.0488007  57.6497533
  22.0721123  -1.8373281  56.4759560  22.0634521  -1.9402066  57.2537735
  25.6580348   4.2259756  57.9269391  25.0743337   4.7268962  57.5146959
  25.9784642   3.7189312  57.2933715  25.6193524   4.2251591  57.7727899
  18.1975148   3.1400350  48.2028066  19.0190842   3.3098663  47.9609761
  17.7344798   3.2947611  47.4794364  18.2506310   3.1882083  48.0599711
  12.6001038  14.8959529  55.8565303  13.2045896  14.8555363  55.2279124
  12.3928351  15.7430681  55.8869359  12.6589936  15.0147531  55.7681419
  22.4144810  17.1625474  57.0727540  23.2343184  17.0188440  57.3343836
  22.1338888  17.7871673  57.6143978  22.4941554  17.2335826  57.1915480
   7.8352321  13.8794146  55.7264226   7.7376599  13.0690418  56.0354283
   8.6181190  13.8585940  55.3410494   7.9368457  13.7561236  55.7151089
  35.3951862  30.1752502  64.3983803  36.1018629  29.6804533  64.5270738
  35.5839798  30.6161584  63.6686461  35.5279768  30.1670852  64.3092849
  34.9309967  25.9658020  57.4354999  35.4765927  26.6443107  57.4948968
  34.8726843  25.8245481  56.5756580  35.0025881  26.0450022  57.3167059
  23.5439173  21.6453104  55.3459993  22.9244205  21.0545751  55.1770007
  23.4423037  22.2364539  54.7124316  23.4376849  21.6457186  55.2264982
  23.2708306  25.1905385  57.5903562  23.1467003  25.7767831  58.2253380
  23.9226591  24.6965581  57.8915837  23.3481956  25.2044190  57.7289491
  28.8133932  18.7545042  53.7613730  28.4837262  19.2056186  53.0917429
  28.1378934  18.6761205  54.3086737  28.6644369  18.8096177  53.7436954
  36.0210340  14.7430565  52.0063341  35.7063781  15.4334044  52.4383763
  35.5037282  14.6875347  51.3048842  35.8974811  14.8365454  51.9660290
  22.8066410  34.3553044  53.7231891  22.3233989  35.0803534  53.6991475
  23.6189729  34.6529174  53.8342049  22.8557158  34.5055398  53.7359170
  32.5344156  33.5980039  62.2897879  32.6227502  33.4106179  63.1376089
  32.9633869  32.9517468  61.8902725  32.6106259  33.4743046  62.3569630
  30.1014616  32.8811199  61.2715541  29.5385451  32.4683808  61.7955202
  30.8635640  32.8064104  61.6908684  30.1309065  32.8088599  61.4108541
  27.0189887  16.8157331  49.2436678  27.7735855  17.1835648  49.0053728
  26.8417421  17.1896885  50.0115858  27.1044365  16.9255518  49.3221567
  40.3124785  22.9651771  57.2884217  39.4753206  23.0353958  57.5231812
  40.2813016  22.9676266  56.4158520  40.1843068  22.9761998  57.1943765
  26.7089514  25.1084807  63.0032586  26.8810018  24.9990701  63.8517867
  27.2458872  25.7539212  62.7663778  26.8134518  25.1876808  63.0937683
  25.3746951  19.2227650  45.9414791  25.1922524  19.4399530  45.1155784
  26.2372564  19.3366662  45.9973405  25.4751541  19.2717547  45.8269278
  25.6114086  31.4816447  57.6851084  26.1512311  31.3387578  58.3554457
  24.9284032  31.8813198  58.0535111  25.5906240  31.5196118  57.8385506
  32.6464216  33.0289058  64.9541662  33.4304632  33.1419905  65.3197404
  32.4460810  32.2030195  65.1500348  32.7330241  32.9235777  65.0376048
  21.0151231  27.7016738  57.8385506  20.7489646  26.8855854  57.9976496
  21.0289795  27.7469893  56.9681021  20.9775954  27.5873643  57.7338988
  37.9932625  18.0294553  55.8727940  38.6358533  18.0992657  56.4589855
  38.2455646  17.3623776  55.3707482  38.1254757  17.9420901  55.8855219
  25.7649838  21.2395116  60.4852514  25.0721634  20.7692096  60.7313245
  26.3810165  21.0133421  61.0594221  25.7534368  21.1362248  60.6061666
  32.8034609  34.9399160  58.6008118  32.0049855  34.6998660  58.8581986
  33.2520621  34.9913553  59.3475165  32.7509220  34.9121551  58.7493042
  21.4244645  28.4875517  55.1197250  21.2420218  28.4622403  54.2669542
  22.1594314  28.9574455  55.1586159  21.5058709  28.5536879  54.9995169
  24.4890397  25.2060520  61.6279359  25.2130369  25.1913551  62.1144254
  24.5906533  25.9155875  61.1301327  24.6108606  25.3085223  61.6258146
  31.8635346  28.6859605  66.4928306  31.0708327  29.0003116  66.6780926
  31.9784273  28.9011073  65.6549090  31.7630757  28.7643441  66.3966641
  32.7919139  28.5879808  61.4313603  33.3658000  27.9507053  61.5862166
  32.7133942  28.5883891  60.5623260  32.8652374  28.4944920  61.3260013
  21.3915555  25.3669018  55.2696317  21.9689058  25.2305469  55.9088562
  20.6929617  24.9104802  55.5241901  21.3736577  25.2791284  55.4018606
  30.7890858  23.0464185  58.8292073  30.4005291  22.6218403  58.1744264
  30.1245557  23.2946335  59.3369100  30.6337786  23.0202906  58.8079941
  16.8674388  24.2180911  51.9844135  16.9534640  23.8412779  52.7657665
  17.4950186  23.8441356  51.5064094  16.9730939  24.1066393  52.0289613
  34.6117220  16.7438814  56.3416057  34.9927731  16.0616985  56.7283932
  33.8080504  16.4548416  56.1591722  34.5493681  16.6005863  56.3720113
  38.1139287  29.9588786  61.4398456  37.8777924  29.1276851  61.3210516
  38.7582516  29.9074393  62.0253300  38.1733957  29.8286474  61.5084349
  22.4550347  32.9872644  56.0375496  22.4954492  33.2587495  55.2095276
  23.0144871  33.5114552  56.4533284  22.5433693  33.1048399  55.9767384
  28.5709060  19.2493012  66.2078666  28.2562501  20.0192575  65.9448229
  28.2498993  18.6863268  65.6230893  28.4767979  19.2803281  66.0820016
  44.8377499  26.3826235  56.8295095  44.7702000  26.4022195  55.9597681
  44.8233162  27.2256563  57.0550765  44.8256256  26.5099970  56.7347571
  26.1240957  17.6383534  51.8224862  25.2563383  17.7106133  51.8882471
  26.4116161  18.4405613  52.0112837  26.0380705  17.7677681  51.8599629
  35.2473846  17.7861393  60.1536184  35.9927438  17.5971204  59.7399609
  34.8311150  18.3119631  59.5950040  35.2958820  17.8363539  60.0100757
  42.6236117  25.1570622  55.1041689  43.1744038  24.5238691  55.3438781
  42.6080232  25.6886014  55.7957193  42.7021313  25.1419570  55.2420547
  29.2758508  28.9909219  59.6501582  28.7770201  29.7024987  59.7286471
  30.0858732  29.3109886  59.6119745  29.3214614  29.1436068  59.6558151
  28.2025566  21.8490263  64.9463881  27.3925341  22.1548043  64.8353723
  28.6800252  22.5695846  65.0616465  28.1529044  22.0004864  64.9470952
  24.5369597  27.3852814  59.8163283  25.0490694  27.6637067  59.1672043
  24.2505940  28.1242108  60.1826096  24.5704461  27.5355167  59.7753161
  21.6236504  21.8923006  50.1127019  21.7252640  22.6949167  50.4407995
  22.4192391  21.6910341  49.8150100  21.7564409  21.9808904  50.1162375
  28.0553323  19.4779202  59.8764325  27.8636520  19.4934337  60.7263748
  28.9051919  19.6742877  59.8530979  28.1529045  19.5093553  59.9987619
  22.4400236  22.0070184  57.8548141  22.2985728  21.1554124  57.9792649
  22.7240799  22.0498844  57.0310347  22.4608082  21.8869934  57.7515765
  34.8264962  26.8517009  62.0401792  34.8213001  25.9796825  62.0444219
  35.5325956  27.0505178  61.5671248  34.9309966  26.7520883  61.9708828
  28.5535856  26.5793993  61.4115612  28.6979231  27.1595201  60.7758722
  28.9011504  26.9570289  62.1165467  28.6263317  26.7214697  61.4214607
  30.7255773  25.7784161  59.1940744  29.9779087  25.9715175  58.7889022
  30.8797298  24.9529380  58.9564865  30.6378200  25.6849272  59.0986150
  27.6263610  34.7696764  58.2776639  27.7753174  34.2099680  57.6250044
  28.4063613  34.8488766  58.6609158  27.7637704  34.6982330  58.2373588
  30.1516911  34.9411407  59.5561130  30.0760582  34.2720218  60.1111918
  30.0806770  35.6429195  60.0701796  30.1297518  34.9456315  59.7137978
  30.9657550  19.6734712  60.0836148  31.4230164  20.4058686  60.2108940
  31.0413879  19.2501177  60.8423404  31.0448520  19.7191950  60.2137224
  35.4384876  12.8524587  53.9529991  35.5568444  13.3101050  53.2197293
  35.2647052  12.0469848  53.6666208  35.4304047  12.8018359  53.8030924
  28.8439928  21.6636816  56.9277972  28.0536003  21.4828276  57.2495308
  29.2400551  20.8863768  56.9108266  28.7856804  21.5224276  56.9730520
  31.3577758  24.1397075  61.4101471  31.2936899  25.0007031  61.2821607
  31.4974946  23.8229068  60.6097022  31.3693228  24.2197241  61.2729684
  30.0396852  26.8329214  55.5517674  29.6159101  27.0333713  54.8156692
  29.8641707  25.9858062  55.6641973  29.9507733  26.7377995  55.4591364
  35.7375549  30.9141796  66.9665922  36.5510414  30.6426945  67.1271054
  35.5770515  30.6149336  66.1626117  35.8345497  30.8296722  66.8711327
  33.0147711  21.5975454  59.9061310  33.2289681  20.9586368  59.3524664
  32.3981610  22.0421277  59.4769172  32.9553040  21.5685597  59.7611741
  35.1786799  23.2064519  60.8444617  34.3663481  22.8990409  60.9257790
  35.6376734  22.7263519  61.4087329  35.1267184  23.0901011  60.9399211
  32.4062440  14.7075389  54.8948653  31.5355998  14.6814110  54.8481962
  32.6602781  14.5352581  54.0774498  32.3156000  14.6785533  54.7668789
  32.2740306  24.6124590  65.6273319  32.7439938  25.2366707  66.0141193
  32.3202187  23.9441566  66.1866534  32.3508182  24.6059270  65.7673391
  29.4311580  16.7181618  56.3522123  28.9150069  16.0261809  56.4773702
  28.8705509  17.3852395  56.2984722  29.2718093  16.7144875  56.3628189
  31.5003814  17.2574578  58.1814976  31.1135567  17.2823609  58.9628505
  31.0136751  16.6916256  57.7289492  31.3716322  17.1770329  58.2302879
  35.7496793  31.9748087  62.2388762  36.3876513  31.4808282  61.9051218
  35.1070885  31.9025487  61.6540989  35.7491020  31.8907095  62.1031117
  31.1660955  14.1441563  60.4725235  31.7954073  14.6801863  60.1946306
  31.3346818  14.0518922  61.3238801  31.2838750  14.2102925  60.5573764
  30.9674870  18.9312758  62.7451647  31.7948299  18.6597907  62.8010261
  30.9882716  19.7273600  63.1015465  31.0927720  19.0092512  62.8066830
  35.8051050  32.6667895  58.8794119  36.5943428  32.3156960  58.9996200
  35.9794647  33.4804283  58.6170753  35.9471331  32.7353752  58.8581987
  25.5444360  26.0776621  55.9321908  24.7032367  25.9780495  56.1400802
  25.7534368  26.8472101  56.2836228  25.4509053  26.1768664  56.0149223
  23.0219927  23.6996158  53.7606658  22.6276625  23.7739169  52.9856768
  22.4660044  24.0854104  54.3115020  22.8822739  23.7677932  53.7274318
  34.6584874  16.6777452  53.4410537  34.8634467  16.6099760  54.2867534
  34.3311298  17.4836273  53.3731715  34.6400122  16.7863392  53.5570192
  29.3561025  24.0058020  55.1819505  29.0524162  23.4514008  55.7829913
  28.6540446  24.1850230  54.6947539  29.2077235  23.9502802  55.1989211
  27.4179376  31.2207741  59.8891603  27.3099731  31.2309803  60.7553661
  27.6275157  32.0462521  59.6996557  27.4329487  31.3448815  59.9895695
  37.9118561  17.2309216  52.9213303  37.2992875  17.7179618  53.3067035
  38.0082736  16.5552707  53.4650954  37.8356459  17.2027525  53.0592161
  25.4353168  28.4720383  57.3513541  24.8441101  29.1129881  57.3216556
  26.1974191  28.8958000  57.3244840  25.4601428  28.6296221  57.3428688
  25.8313791  19.6322381  58.0181558  26.2915272  19.7061310  58.7556682
  25.8769897  20.4303635  57.6681380  25.9064346  19.7616528  58.0754315
  27.4797140  20.2989076  62.5853585  27.0882706  19.6522423  63.0209363
  27.6483003  20.8900511  63.2047841  27.4468051  20.2903343  62.7416291
  41.5543589  28.3026153  58.3490819  41.6126713  28.7512801  59.0950795
  40.9210057  28.7124965  57.9120899  41.4694885  28.4299887  58.3943367
  31.1730238  17.4864850  54.1587671  30.3266283  17.6587658  54.0329021
  31.1701370  16.6814194  54.4953499  31.0477388  17.3925879  54.1898798
  32.2428538  21.2640065  55.0249729  31.7688493  20.7381827  55.5355040
  32.6146674  20.7169538  54.4564590  32.2278427  21.1056061  55.0164876
  22.6201568  23.2611571  60.3933274  23.4827181  23.1607281  60.3070604
  22.2893351  22.6806281  59.8318847  22.6986765  23.1603198  60.2978680
  37.1116486  27.4893847  60.3190813  37.8350685  27.0366373  60.1401833
  36.8466448  27.7698513  59.5363141  37.1797759  27.4644815  60.1769529
  25.9803354  22.0854020  57.0543693  25.3556425  22.0972412  56.4469645
  25.6448949  22.5614196  57.7034933  25.8388846  22.1572537  57.0600261
  26.1645103  20.4279139  43.1116378  25.8157907  21.0798864  43.5747927
  25.6841549  20.4136252  42.3840249  26.0415347  20.5222192  43.0727469
  22.6929030  30.1454480  58.4947457  22.1628954  29.4546919  58.5442432
  22.9654123  30.1364666  57.6660165  22.6553752  30.0421612  58.3794873
  32.8935276  27.5877725  58.4685828  32.2792269  27.0435775  58.7634464
  33.4102560  27.0741962  57.9891645  32.8790938  27.4314134  58.4410057
  25.2494100  23.6947168  59.2718561  25.4087587  22.9390492  59.6770283
  25.0686993  24.2438108  59.9259299  25.2459459  23.6640982  59.4281267
  33.1914403  15.8608404  59.8269351  32.6954964  16.0572078  59.1360917
  33.9483465  16.2601072  59.6558152  33.2301227  15.9486138  59.6989487
  30.4617282  19.5350750  56.4172661  30.4859770  19.0010862  55.7285441
  30.7128756  19.0268058  57.0798252  30.5027201  19.3811654  56.4137306
  17.9724872  26.8182245  55.8515805  17.8668321  26.7729089  54.9867889
  17.2225092  27.1636025  56.1330090  17.8460475  26.8623153  55.7653135
  26.7418605  18.2621568  55.7978405  26.7816976  18.7630774  56.5113113
  25.9168269  18.3531962  55.5284328  26.6258131  18.3503384  55.8628944
  28.9248218  27.8282308  63.8998700  28.0743848  27.9654022  64.0356345
  29.0876345  27.0946086  64.3446402  28.8232081  27.7396409  63.9854299
  28.1632968  24.7782078  58.0952304  27.3324898  24.9455896  57.8887553
  28.1084485  24.4018029  58.8801190  28.0322383  24.7471809  58.1800833
  25.9716751  18.2690971  63.7308715  26.5969455  17.7253103  64.0038147
  25.5167231  17.7885888  63.1616506  25.9965012  18.1180452  63.6870309
  39.5451800  26.4520258  58.8221363  40.1369640  27.0917508  58.8539561
  39.9810795  25.7543294  59.1113430  39.6970231  26.4438608  58.8702196
  31.3745190  30.8737630  59.4479257  30.8670281  31.4273477  59.8919888
  31.0771836  30.9345920  58.6298032  31.2550075  30.9643941  59.3927714
  33.5407372  19.2390950  58.2903920  33.9662444  18.7863476  57.6787446
  32.9264365  18.6851020  58.5668708  33.5136017  19.0904926  58.2408945
  31.9801595  15.7106049  51.6994497  31.3369913  15.5603696  52.2679636
  31.6401002  15.4648395  50.9343602  31.8346672  15.6518172  51.6697512
  25.4312754  22.7528880  52.0897725  24.7124743  23.1693012  52.3570589
  25.8025116  23.3183118  51.5389364  25.3804686  22.8978161  52.0480532
  32.6758665  29.9743921  63.9048198  32.6354519  29.3293597  63.3193354
  33.4881983  29.9180538  64.2173610  32.7901818  29.8702887  63.8645147
  38.1653129  15.2439772  54.9599191  37.6583994  14.5368911  54.8920369
  38.9620563  14.9132961  55.0900268  38.2080368  15.0912923  54.9698186
  28.3636373  23.6040857  60.4597955  27.8515276  22.9962040  60.8182987
  28.1915869  24.3197450  60.9271931  28.2626010  23.6204156  60.5814179
  23.2102088  22.0478432  63.1100317  23.0404678  22.7079807  62.5648524
  22.7668038  22.2584994  63.8312806  23.1201422  22.1764414  63.1361947
  27.1361907  20.2882930  52.1527051  27.6119274  20.6500010  51.5177232
  26.6350507  20.9439398  52.4327194  27.1327266  20.4377119  52.1003792
  32.2405444  21.5265102  62.9000211  32.7976874  21.2978911  62.2678676
  31.9166509  22.2870767  62.6235423  32.2751854  21.6048938  62.7656708
  20.1104152  24.9525298  58.3688807  19.5630872  24.2825943  58.4869675
  20.8996531  24.5855146  58.4332274  20.1456336  24.7990284  58.3957507
  29.9588561  24.6132755  63.8652218  30.7099888  24.9284432  64.1791772
  30.1511137  24.4111926  63.0386140  30.0979975  24.6300137  63.7895614
  18.8691122  24.1646106  55.5234830  18.6912883  23.7122715  56.2489746
  18.5810144  24.9672267  55.7073308  18.8004075  24.2168664  55.6578333
  36.5966522  28.1707511  57.4489349  37.0221593  27.6481932  56.8959774
  36.2323442  28.7688348  56.9277972  36.6053124  28.1817738  57.2898359
  35.2722106  33.4943088  65.9582579  35.3819071  32.7051649  66.3139326
  35.6013003  33.4049024  65.1556917  35.3374512  33.3648941  65.8924969
  30.1014616  16.6569245  60.7348601  30.2342522  15.8600239  61.0629577
  30.4859769  17.1835648  61.3146877  30.1770945  16.6169162  60.8692104
  33.8219068  31.6759709  60.5418199  33.2740014  31.0517593  60.2738264
  34.2832096  31.8653981  59.8262279  33.8086277  31.6118759  60.3968630
  33.1746971  13.5799572  57.3329695  32.3692935  13.4697301  57.6497533
  33.0453707  13.6812027  56.4759560  33.0367104  13.5783242  57.2537735
  36.6312932  19.7445063  57.9269391  36.0475921  20.2454270  57.5146959
  36.9517226  19.2374620  57.2933715  36.5926107  19.7436899  57.7727899
  27.7603063  16.6528421  58.9826495  28.3047476  16.3119547  59.5730837
  27.8139999  17.5113882  59.1247780  27.8492182  16.7283680  59.0908368
  23.5733622  30.4144837  55.8565303  24.1778479  30.3740671  55.2279124
  23.3660934  31.2615989  55.8869359  23.6322519  30.5332839  55.7681419
  18.8084904  29.3979454  55.7264226  18.7109182  28.5875726  56.0354283
  19.5913774  29.3771247  55.3410494  18.9101041  29.2746544  55.7151089
  46.3684446  45.6937810  64.3983803  47.0751213  45.1989841  64.5270738
  46.5572381  46.1346892  63.6686461  46.5012351  45.6856160  64.3092849
  43.5076740  49.1165347  62.2897879  43.5960086  48.9291487  63.1376089
  43.9366453  48.4702776  61.8902725  43.5838842  48.9928354  62.3569630
  41.0747200  48.3996507  61.2715541  40.5118035  47.9869116  61.7955202
  41.8368223  48.3249412  61.6908684  41.1041648  48.3273907  61.4108541
  37.6822098  40.6270115  63.0032586  37.8542602  40.5176009  63.8517867
  38.2191455  41.2724520  62.7663778  37.7867102  40.7062116  63.0937683
  43.6196799  48.5474366  64.9541662  44.4037216  48.6605213  65.3197404
  43.4193394  47.7215503  65.1500348  43.7062825  48.4421085  65.0376048
  48.9665209  33.5479861  55.8727940  49.6091117  33.6177965  56.4589855
  49.2188229  32.8809083  55.3707482  49.0987341  33.4606209  55.8855219
  36.7382421  36.7580424  60.4852514  36.0454218  36.2877404  60.7313245
  37.3542748  36.5318728  61.0594221  36.7266951  36.6547556  60.6061666
  43.7767193  50.4584468  58.6008118  42.9782438  50.2183968  58.8581986
  44.2253204  50.5098861  59.3475165  43.7241804  50.4306859  58.7493042
  42.8367930  44.2044913  66.4928306  42.0440910  44.5188424  66.6780926
  42.9516857  44.4196381  65.6549090  42.7363340  44.2828749  66.3966641
  43.7651722  44.1065116  61.4313603  44.3390584  43.4692361  61.5862166
  43.6866526  44.1069199  60.5623260  43.8384957  44.0130228  61.3260013
  41.7623442  38.5649493  58.8292073  41.3737875  38.1403711  58.1744264
  41.0978140  38.8131643  59.3369100  41.6070370  38.5388214  58.8079941
  45.5849803  32.2624122  56.3416057  45.9660315  31.5802293  56.7283932
  44.7813088  31.9733724  56.1591722  45.5226265  32.1191170  56.3720113
  49.0871870  45.4774094  61.4398456  48.8510508  44.6462159  61.3210516
  49.7315099  45.4259701  62.0253300  49.1466541  45.3471782  61.5084349
  39.5441644  34.7678320  66.2078666  39.2295085  35.5377883  65.9448229
  39.2231576  34.2048576  65.6230893  39.4500563  34.7988589  66.0820016
  55.8110083  41.9011543  56.8295095  55.7434583  41.9207502  55.9597681
  55.7965745  42.7441871  57.0550765  55.7988839  42.0285278  56.7347571
  46.2206429  33.3046701  60.1536184  46.9660021  33.1156511  59.7399609
  45.8043734  33.8304939  59.5950040  46.2691404  33.3548846  60.0100757
  53.5968700  40.6755930  55.1041689  54.1476622  40.0423999  55.3438781
  53.5812816  41.2071322  55.7957193  53.6753897  40.6604878  55.2420547
  39.1758149  37.3675571  64.9463881  38.3657925  37.6733351  64.8353723
  39.6532836  38.0881154  65.0616465  39.1261628  37.5190172  64.9470952
  45.8188072  36.8343848  56.0905828  44.9799173  36.8605127  55.8544091
  45.8892439  37.4814583  56.6711175  45.7056465  36.9339974  56.1414945
  39.0285906  34.9964510  59.8764325  38.8369103  35.0119645  60.7263748
  39.8784502  35.1928184  59.8530979  39.1261628  35.0278861  59.9987619
  45.7997546  42.3702317  62.0401792  45.7945584  41.4982133  62.0444219
  46.5058540  42.5690486  61.5671248  45.9042550  42.2706191  61.9708828
  39.5268439  42.0979300  61.4115612  39.6711815  42.6780509  60.7758722
  39.8744088  42.4755597  62.1165467  39.5995900  42.2400004  61.4214607
  41.6988356  41.2969469  59.1940744  40.9511670  41.4900483  58.7889022
  41.8529882  40.4714688  58.9564865  41.6110784  41.2034580  59.0986150
  41.1249495  50.4596715  59.5561130  41.0493166  49.7905526  60.1111918
  41.0539354  51.1614503  60.0701796  41.1030102  50.4641622  59.7137978
  41.9390133  35.1920020  60.0836148  42.3962748  35.9243994  60.2108940
  42.0146462  34.7686485  60.8423404  42.0181103  35.2377258  60.2137224
  34.1823125  35.4385839  61.1725591  33.6465314  34.8266197  61.4886359
  34.2440889  36.0133975  61.8259258  34.1118757  35.4332767  61.3161018
  39.8172511  37.1822123  56.9277972  39.0268586  37.0013584  57.2495308
  40.2133134  36.4049076  56.9108266  39.7589388  37.0409584  56.9730520
  42.3310342  39.6582383  61.4101471  42.2669483  40.5192339  61.2821607
  42.4707529  39.3414376  60.6097022  42.3425812  39.7382549  61.2729684
  40.5141129  53.8665035  58.0139131  41.0037059  53.1675824  57.8314795
  39.9425361  53.5688905  58.6015188  40.5025659  53.7191259  58.0740172
  46.7108133  46.4327104  66.9665922  47.5242998  46.1612253  67.1271054
  46.5503099  46.1334644  66.1626117  46.8078081  46.3482030  66.8711327
  43.9880295  37.1160761  59.9061310  44.2022264  36.4771676  59.3524664
  43.3714194  37.5606585  59.4769172  43.9285624  37.0870905  59.7611741
  46.1519383  38.7249827  60.8444617  45.3396064  38.4175717  60.9257790
  46.6109317  38.2448827  61.4087329  46.0999767  38.6086319  60.9399211
  43.2472890  40.1309898  65.6273319  43.7172521  40.7552014  66.0141193
  43.2934770  39.4626874  66.1866534  43.3240766  40.1244578  65.7673391
  40.4044164  32.2366926  56.3522123  39.8882652  31.5447117  56.4773702
  39.8438093  32.9037703  56.2984722  40.2450677  32.2330183  56.3628189
  42.4736397  32.7759886  58.1814976  42.0868150  32.8008917  58.9628505
  41.9869334  32.2101564  57.7289492  42.3448906  32.6955636  58.2302879
  46.7229377  47.4933395  62.2388762  47.3609097  46.9993590  61.9051218
  46.0803468  47.4210795  61.6540989  46.7223603  47.4092403  62.1031117
  42.1393539  29.6626871  60.4725235  42.7686657  30.1987171  60.1946306
  42.3079402  29.5704230  61.3238801  42.2571333  29.7288233  60.5573764
  41.9407454  34.4498066  62.7451647  42.7680883  34.1783215  62.8010261
  41.9615300  35.2458907  63.1015465  42.0660304  34.5277820  62.8066830
  36.8046374  35.1507689  58.0181558  37.2647856  35.2246618  58.7556682
  36.8502481  35.9488943  57.6681380  36.8796930  35.2801836  58.0754315
  38.4529724  35.8174384  62.5853585  38.0615289  35.1707731  63.0209363
  38.6215587  36.4085819  63.2047841  38.4200634  35.8088651  62.7416291
  52.5276173  43.8211461  58.3490819  52.5859297  44.2698109  59.0950795
  51.8942641  44.2310273  57.9120899  52.4427468  43.9485195  58.3943367
  51.4803039  38.6229205  54.3885768  51.2412809  38.5825040  53.5506553
  51.6436941  39.4700358  54.5151489  51.4693343  38.7421290  54.2839250
  44.1646986  31.3793712  59.8269351  43.6687548  31.5757386  59.1360917
  44.9216048  31.7786380  59.6558152  44.2033811  31.4671445  59.6989487
  39.8980801  43.3467616  63.8998700  39.0476432  43.4839330  64.0356345
  40.0608929  42.6131394  64.3446402  39.7964665  43.2581717  63.9854299
  36.9449335  33.7876279  63.7308715  37.5702038  33.2438411  64.0038147
  36.4899815  33.3071196  63.1616506  36.9697595  33.6365760  63.6870309
  44.5139956  34.7576258  58.2903920  44.9395027  34.3048784  57.6787446
  43.8996949  34.2036328  58.5668708  44.4868601  34.6090234  58.2408945
  43.6491248  45.4929228  63.9048198  43.6087103  44.8478905  63.3193354
  44.4614566  45.4365846  64.2173610  43.7634402  45.3888195  63.8645147
  49.1385713  30.7625080  54.9599191  48.6316577  30.0554219  54.8920369
  49.9353146  30.4318269  55.0900268  49.1812952  30.6098231  54.9698186
  39.3368957  39.1226165  60.4597955  38.8247860  38.5147348  60.8182987
  39.1648453  39.8382758  60.9271931  39.2358594  39.1389464  60.5814179
  34.1834672  37.5663740  63.1100317  34.0137262  38.2265115  62.5648524
  33.7400621  37.7770302  63.8312806  34.0934005  37.6949722  63.1361947
  43.2138027  37.0450410  62.9000211  43.7709457  36.8164219  62.2678676
  42.8899092  37.8056075  62.6235423  43.2484437  37.1234246  62.7656708
  40.9321144  40.1318063  63.8652218  41.6832471  40.4469740  64.1791772
  41.1243721  39.9297234  63.0386140  41.0712559  40.1485445  63.7895614
  46.2454689  49.0128396  65.9582579  46.3551655  48.2236957  66.3139326
  46.5745586  48.9234332  65.1556917  46.3107095  48.8834249  65.8924969
  41.0747200  32.1754553  60.7348601  41.2075105  31.3785547  61.0629577
  41.4592353  32.7020956  61.3146877  41.1503529  32.1354470  60.8692104
  44.1479555  29.0984880  57.3329695  43.3425519  28.9882609  57.6497533
  44.0186291  29.1997335  56.4759560  44.0099688  29.0968550  57.2537735
  47.6045516  35.2630371  57.9269391  47.0208504  35.7639578  57.5146959
  47.9249810  34.7559928  57.2933715  47.5658691  35.2622206  57.7727899
  38.7335647  32.1713728  58.9826495  39.2780060  31.8304855  59.5730837
  38.7872582  33.0299190  59.1247780  38.8224766  32.2468988  59.0908368
  54.0323313  54.9436592  54.7923347  53.1761208  55.1045091  54.8432464
  54.0790966  54.0728656  54.8128408  53.9122424  54.8387394  54.8029413
  57.3417029  61.2123118  64.3983803  58.0483797  60.7175149  64.5270738
  57.5304965  61.6532199  63.6686461  57.4744935  61.2041468  64.3092849
  53.4093704  66.8538948  51.9257237  53.7933083  67.4225847  51.3862013
  53.3452845  66.1288459  51.4463053  53.4567131  66.8314412  51.7751100
  56.8775134  57.0028636  57.4354999  57.4231094  57.6813723  57.4948968
  56.8192010  56.8616097  56.5756580  56.9491048  57.0820638  57.3167059
  49.9949209  64.4917702  52.8223351  50.0959572  63.6818056  53.1320479
  49.3990954  64.3974649  52.1923030  49.9221747  64.3582730  52.7749590
  49.8349948  69.4095292  54.2238207  50.4787404  69.8508456  54.6134366
  50.1606204  68.6048718  54.1368466  49.9781777  69.3560486  54.2683685
  45.2173473  56.2276001  57.5903562  45.0932170  56.8138447  58.2253380
  45.8691758  55.7336197  57.8915837  45.2947123  56.2414806  57.7289491
  50.2431814  59.4037718  56.8691073  50.8880817  58.9110161  56.5502021
  50.4833591  59.5462505  57.6957151  50.3742400  59.3515160  56.9440606
  52.7817906  62.2492624  56.5197965  53.0641149  61.4544030  56.2984721
  53.5104066  62.7273212  56.5403026  52.9307469  62.2027221  56.4900980
  57.9675507  45.7801181  52.0063341  57.6528948  46.4704660  52.4383763
  57.4502449  45.7245963  51.3048842  57.8439978  45.8736069  51.9660290
  62.7635994  61.3551986  53.4933796  61.9333697  61.5662630  53.6567213
  62.7145246  60.5289041  53.2176080  62.6342729  61.2641593  53.4771161
  44.7531578  65.3923660  53.7231891  44.2699156  66.1174149  53.6991475
  45.5654896  65.6899790  53.8342049  44.8022325  65.5426013  53.7359170
  50.8245732  64.1855840  56.3281705  50.3072673  63.8263255  55.7243014
  51.5220123  63.6618015  56.3387772  50.8511313  64.0553528  56.2411964
  54.4809324  64.6350655  62.2897879  54.5692669  64.4476795  63.1376089
  54.9099036  63.9888084  61.8902725  54.5571426  64.5113662  62.3569630
  52.0479783  63.9181814  61.2715541  51.4850618  63.5054424  61.7955202
  52.8100807  63.8434720  61.6908684  52.0774232  63.8459215  61.4108541
  47.6075775  65.9079836  53.8752171  48.3096354  65.3931825  53.9324927
  47.5273258  66.2353987  54.6799046  47.6999535  65.8794062  54.0024963
  62.2589952  54.0022387  57.2884217  61.4218373  54.0724574  57.5231812
  62.2278183  54.0046882  56.4158520  62.1308235  54.0132614  57.1943765
  48.6554681  56.1455423  63.0032586  48.8275185  56.0361317  63.8517867
  49.1924039  56.7909828  62.7663778  48.7599685  56.2247424  63.0937683
  46.9326550  62.0986188  53.3837779  47.7715450  62.3309120  53.4311540
  46.9638319  61.2290499  53.3144814  47.0608268  62.0043134  53.3802424
  47.5579253  62.5187063  57.6851084  48.0977478  62.3758194  58.3554457
  46.8749200  62.9183814  58.0535111  47.5371407  62.5566734  57.8385506
  56.9820138  58.1978063  52.8796109  57.7377653  58.6309578  52.9185018
  57.0882463  57.5482833  53.4530745  57.1090309  58.1655547  52.9694134
  60.0200309  62.0251341  53.6298512  59.5835541  62.0288083  54.3857483
  59.6863225  62.7056840  53.1978089  59.9062929  62.1263796  53.6779344
  54.5929383  64.0659674  64.9541662  55.3769800  64.1790521  65.3197404
  54.3925977  63.2400811  65.1500348  54.6795408  63.9606393  65.0376048
  42.9616398  58.7387354  57.8385506  42.6954814  57.9226470  57.9976496
  42.9754963  58.7840509  56.9681021  42.9241121  58.6244258  57.7338988
  59.9397792  49.0665169  55.8727940  60.5823701  49.1363273  56.4589855
  60.1920813  48.3994391  55.3707482  60.0719924  48.9791517  55.8855219
  54.7499776  65.9769776  58.6008118  53.9515022  65.7369276  58.8581986
  55.1985788  66.0284168  59.3475165  54.6974387  65.9492167  58.7493042
  43.3709812  59.5246133  55.1197250  43.1885385  59.4993019  54.2669542
  44.1059481  59.9945071  55.1586159  43.4523876  59.5907495  54.9995169
  46.4355564  56.2431136  61.6279359  47.1595536  56.2284167  62.1144254
  46.5371700  56.9526491  61.1301327  46.5573773  56.3455839  61.6258146
  53.8100513  59.7230220  66.4928306  53.0173494  60.0373732  66.6780926
  53.9249440  59.9381689  65.6549090  53.7095924  59.8014057  66.3966641
  54.7384306  59.6250424  61.4313603  55.3123168  58.9877668  61.5862166
  54.6599110  59.6254507  60.5623260  54.8117541  59.5315536  61.3260013
  50.0948025  58.0573689  53.4834800  49.8367269  57.2245424  53.4566099
  50.1496507  58.2831302  52.6427300  50.0647802  57.9671461  53.3554937
  55.1749075  50.1602140  53.5838893  54.4705401  49.6711326  53.7422812
  55.2234049  50.1724615  52.7127337  55.0779126  50.0891788  53.4778232
  52.7356025  54.0834801  58.8292073  52.3470458  53.6589019  58.1744264
  52.0710724  54.3316951  59.3369100  52.5802953  54.0573522  58.8079941
  62.3779294  53.8409806  51.6039903  62.1215859  53.0289747  51.4137786
  63.2208608  53.8487373  51.3770091  62.4645320  53.7221803  51.5424720
  56.5582387  47.7809430  56.3416057  56.9392899  47.0987601  56.7283932
  55.7545671  47.4919032  56.1591722  56.4958849  47.6376478  56.3720113
  60.0604454  60.9959402  61.4398456  59.8243091  60.1647467  61.3210516
  60.7047683  60.9445009  62.0253300  60.1199125  60.8657090  61.5084349
  49.7102872  61.7854923  52.1541192  50.3476819  61.5466671  52.6992986
  50.1357943  61.9892082  51.4194353  49.8679038  61.7805933  52.1258350
  44.4015514  64.0243260  56.0375496  44.4419660  64.2958111  55.2095276
  44.9610038  64.5485168  56.4533284  44.4898860  64.1419015  55.9767384
  50.5174227  50.2863628  66.2078666  50.2027668  51.0563191  65.9448229
  50.1964160  49.7233884  65.6230893  50.4233146  50.3173897  66.0820016
  61.0840874  60.7803851  57.5026750  60.7786691  61.5131907  57.8640066
  60.3647090  60.3741780  57.2219536  60.9328217  60.8285584  57.5139887
  52.0924344  62.2627346  53.8334978  52.1663352  62.1002518  54.6876828
  52.9093850  62.4517535  53.5895460  52.2240702  62.2664088  53.9233004
  66.7842667  57.4196851  56.8295095  66.7167167  57.4392810  55.9597681
  66.7698329  58.2627179  57.0550765  66.7721423  57.5470586  56.7347571
  57.1939013  48.8232009  60.1536184  57.9392605  48.6341819  59.7399609
  56.7776318  49.3490247  59.5950040  57.2423987  48.8734154  60.0100757
  64.5701284  56.1941238  55.1041689  65.1209205  55.5609307  55.3438781
  64.5545399  56.7256630  55.7957193  64.6486480  56.1790186  55.2420547
  51.2223675  60.0279835  59.6501582  50.7235368  60.7395602  59.7286471
  52.0323899  60.3480501  59.6119745  51.2679781  60.1806683  59.6558151
  47.4851792  59.2902788  53.8964303  47.1965041  58.6640259  54.4310031
  48.3535140  59.2323075  53.9628984  47.5712044  59.1890332  53.9855258
  58.2729690  54.4337571  54.2146285  57.9294456  53.7127906  54.5653535
  58.3722733  54.2251422  53.3724643  58.2371733  54.2961774  54.1417965
  50.7402801  68.5758861  50.4139294  51.3926859  68.0435304  50.6430320
  50.0428410  68.2227514  50.8007168  50.7333519  68.4448384  50.5051462
  50.1490733  52.8860879  64.9463881  49.3390508  53.1918659  64.8353723
  50.6265419  53.6066462  65.0616465  50.0994211  53.0375480  64.9470952
  49.0082292  62.1006600  55.1946784  48.4863046  62.2406892  55.8798648
  49.3956313  61.3417264  55.3848901  48.9885993  62.0092124  55.3247860
  56.7920656  52.3529156  56.0905828  55.9531756  52.3790435  55.8544091
  56.8625023  52.9999891  56.6711175  56.6789049  52.4525282  56.1414945
  46.4834765  58.4223430  59.8163283  46.9955862  58.7007683  59.1672043
  46.1971107  59.1612724  60.1826096  46.5169628  58.5725783  59.7753161
  55.2389934  49.2514533  50.8233444  55.9416287  49.0522281  50.3453402
  54.9734123  48.4790475  51.1302287  55.3036566  49.1077499  50.7978886
  44.3865403  53.0440800  57.8548141  44.2450895  52.1924740  57.9792649
  44.6705966  53.0869460  57.0310347  44.4073249  52.9240550  57.7515765
  58.4352044  61.5891249  55.7879411  58.2966404  62.2872295  56.2928153
  57.6552042  61.4339906  55.4315592  58.2995271  61.6691416  55.8105685
  56.7730129  57.8887625  62.0401792  56.7678168  57.0167441  62.0444219
  57.4791123  58.0875794  61.5671248  56.8775133  57.7891499  61.9708828
  50.5001023  57.6164608  61.4115612  50.6444398  58.1965817  60.7758722
  50.8476671  57.9940905  62.1165467  50.5728484  57.7585312  61.4214607
  52.6720940  56.8154777  59.1940744  51.9244254  57.0085791  58.7889022
  52.8262465  55.9899996  58.9564865  52.5843368  56.7219888  59.0986150
  49.5728778  65.8067380  58.2776639  49.7218341  65.2470296  57.6250044
  50.3528780  65.8859382  58.6609158  49.7102871  65.7352946  58.2373588
  52.0982078  65.9782023  59.5561130  52.0225749  65.3090834  60.1111918
  52.0271937  66.6799811  60.0701796  52.0762685  65.9826930  59.7137978
  52.9122717  50.7105327  60.0836148  53.3695331  51.4429302  60.2108940
  52.9879046  50.2871793  60.8423404  52.9913687  50.7562566  60.2137224
  45.1555708  50.9571147  61.1725591  44.6197898  50.3451505  61.4886359
  45.2173473  51.5319283  61.8259258  45.0851341  50.9518075  61.3161018
  57.3850043  43.8895203  53.9529991  57.5033611  44.3471666  53.2197293
  57.2112219  43.0840464  53.6666208  57.3769214  43.8388975  53.8030924
  56.1748781  60.3349862  54.6537418  55.4993783  60.1035094  55.1550805
  56.1841157  59.7271044  54.0279523  56.0767286  60.2108787  54.6353570
  53.3042925  55.1767691  61.4101471  53.2402066  56.0377647  61.2821607
  53.4440113  54.8599684  60.6097022  53.3158395  55.2567857  61.2729684
  58.1765516  63.1914994  46.8847596  58.2585353  63.9981980  46.5609047
  58.6615258  63.2110953  47.6088369  58.2602674  63.3135656  46.9434494
  51.9862019  57.8699830  55.5517674  51.5624268  58.0704329  54.8156692
  51.8106874  57.0228678  55.6641973  51.8972900  57.7748611  55.4591364
  51.4873713  69.3850343  58.0139131  51.9769643  68.6861132  57.8314795
  50.9157945  69.0874213  58.6015188  51.4758243  69.2376567  58.0740172
  57.6840716  61.9512412  66.9665922  58.4975581  61.6797561  67.1271054
  57.5235682  61.6519952  66.1626117  57.7810665  61.8667338  66.8711327
  54.9612878  52.6346069  59.9061310  55.1754848  51.9956984  59.3524664
  54.3446777  53.0791893  59.4769172  54.9018207  52.6056213  59.7611741
  56.3717546  65.5564818  51.3515531  55.9797338  65.2531533  50.6338397
  56.5270618  66.3933908  51.1620484  56.3371136  65.6348654  51.2172028
  54.3527607  45.7446005  54.8948653  53.4821165  45.7184726  54.8481962
  54.6067948  45.5723197  54.0774498  54.2621167  45.7156149  54.7668789
  54.2205474  55.6495206  65.6273319  54.6905105  56.2737322  66.0141193
  54.2667354  54.9812182  66.1866534  54.2973349  55.6429886  65.7673391
  53.4468981  48.2945194  58.1814976  53.0600734  48.3194225  58.9628505
  52.9601918  47.7286872  57.7289492  53.3181490  48.2140944  58.2302879
  57.6961960  63.0118702  62.2388762  58.3341681  62.5178898  61.9051218
  57.0536052  62.9396103  61.6540989  57.6956187  62.9277711  62.1031117
  59.4218960  54.8607848  56.8054678  58.9946568  54.7734197  56.0502777
  58.7845013  54.9685624  57.3909522  59.2648567  54.8640508  56.7800119
  53.1126122  45.1812179  60.4725235  53.7419240  45.7172479  60.1946306
  53.2811985  45.0889538  61.3238801  53.2303917  45.2473541  60.5573764
  52.9140037  49.9683374  62.7451647  53.7413467  49.6968523  62.8010261
  52.9347883  50.7644215  63.1015465  53.0392887  50.0463128  62.8066830
  57.7516217  63.7038511  58.8794119  58.5408595  63.3527575  58.9996200
  57.9259815  64.5174899  58.6170753  57.8936498  63.7724368  58.8581987
  56.6050041  47.7148067  53.4410537  56.8099634  47.6470375  54.2867534
  56.2776465  48.5206889  53.3731715  56.5865289  47.8234008  53.5570192
  51.3026192  55.0428636  55.1819505  50.9989330  54.4884624  55.7829913
  50.6005613  55.2220846  54.6947539  51.1542402  54.9873418  55.1989211
  49.3644543  62.2578356  59.8891603  49.2564898  62.2680419  60.7553661
  49.5740325  63.0833137  59.6996557  49.3794654  62.3819431  59.9895695
  59.8583729  48.2679832  52.9213303  59.2458042  48.7550234  53.3067035
  59.9547904  47.5923323  53.4650954  59.7821626  48.2398140  53.0592161
  47.3818335  59.5090999  57.3513541  46.7906268  60.1500497  57.3216556
  48.1439359  59.9328616  57.3244840  47.4066596  59.6666837  57.3428688
  49.4262308  51.3359691  62.5853585  49.0347873  50.6893039  63.0209363
  49.5948170  51.9271127  63.2047841  49.3933218  51.3273959  62.7416291
  63.5008757  59.3396769  58.3490819  63.5591880  59.7883417  59.0950795
  62.8675224  59.7495581  57.9120899  63.4160052  59.4670503  58.3943367
  57.1407851  64.9600310  54.7845565  56.9427540  65.4491125  54.0901776
  56.5195562  65.1641552  55.3629698  57.0195416  65.0616849  54.7668788
  54.1893705  52.3010681  55.0249729  53.7153660  51.7752443  55.5355040
  54.5611841  51.7540153  54.4564590  54.1743594  52.1426677  55.0164876
  44.5666736  54.2982187  60.3933274  45.4292349  54.1977896  60.3070604
  44.2358519  53.7176897  59.8318847  44.6451932  54.1973814  60.2978680
  60.4530436  57.3613056  56.4356509  60.2128659  56.5219471  56.4398936
  60.9322443  57.4413223  57.1597283  60.4882620  57.2494456  56.5431311
  62.4535623  54.1414513  54.3885768  62.2145393  54.1010348  53.5506553
  62.6169524  54.9885665  54.5151489  62.4425927  54.2606598  54.2839250
  59.0581653  58.5264463  60.3190813  59.7815852  58.0736989  60.1401833
  58.7931616  58.8069128  59.5363141  59.1262927  58.5015431  60.1769529
  44.6394197  61.1825096  58.4947457  44.1094122  60.4917535  58.5442432
  44.9119290  61.1735282  57.6660165  44.6018919  61.0792228  58.3794873
  54.8400443  58.6248341  58.4685828  54.2257436  58.0806391  58.7634464
  55.3567728  58.1112577  57.9891645  54.8256105  58.4684750  58.4410057
  54.0796740  59.6952611  56.2030127  53.6524348  59.0702330  55.7695563
  54.0721684  59.4127533  57.0289134  54.0155881  59.5605392  56.2609955
  47.1959267  54.7317784  59.2718561  47.3552754  53.9761108  59.6770283
  47.0152161  55.2808724  59.9259299  47.1924626  54.7011598  59.4281267
  55.1379570  46.8979020  59.8269351  54.6420131  47.0942694  59.1360917
  55.8948632  47.2971688  59.6558152  55.1766395  46.9856753  59.6989487
  39.9190039  57.8552860  55.8515805  39.8133488  57.8099705  54.9867889
  39.1690259  58.2006641  56.1330090  39.7925642  57.8993769  55.7653135
  50.8713385  58.8652924  63.8998700  50.0209015  59.0024638  64.0356345
  51.0341512  58.1316702  64.3446402  50.7697248  58.7767025  63.9854299
  50.1098135  55.8152694  58.0952304  49.2790065  55.9826512  57.8887553
  50.0549652  55.4388644  58.8801190  49.9787550  55.7842425  58.1800833
  47.9181918  49.3061587  63.7308715  48.5434622  48.7623719  64.0038147
  47.4632398  48.8256504  63.1616506  47.9430179  49.1551068  63.6870309
  61.4916967  57.4890874  58.8221363  62.0834807  58.1288124  58.8539561
  61.9275962  56.7913910  59.1113430  61.6435398  57.4809224  58.8702196
  53.3210357  61.9108246  59.4479257  52.8135448  62.4644093  59.8919888
  53.0237003  61.9716536  58.6298032  53.2015242  62.0014557  59.3927714
  55.4872539  50.2761566  58.2903920  55.9127611  49.8234092  57.6787446
  54.8729532  49.7221636  58.5668708  55.4601185  50.1275542  58.2408945
  55.9318137  65.8271504  47.3783201  55.2147447  65.6532366  46.9130438
  56.5824875  65.5924076  46.8458687  55.9219988  65.7667296  47.2312418
  53.9266762  46.7476665  51.6994497  53.2835080  46.5974312  52.2679636
  53.5866169  46.5019011  50.9343602  53.7811839  46.6888788  51.6697512
  58.5166109  54.7036092  51.1224506  57.8457298  55.2465794  50.9937571
  59.2105859  55.1730947  50.8806200  58.5194976  54.8534363  51.0680033
  52.5652842  66.8432804  56.3536264  52.3418497  66.0851633  56.7220290
  52.0762686  66.8730825  55.6316704  52.4596291  66.7355029  56.3013005
  58.6794236  51.1591976  54.0314879  59.0321846  50.7321699  54.7060678
  57.8209037  51.0742819  54.1615955  58.6043681  51.0836716  54.1509889
  56.6777502  54.4227344  57.9799721  56.6575429  54.2410640  58.8334500
  56.7256703  55.2939363  57.9559305  56.6812143  54.5243883  58.1023016
  54.6223832  61.0114536  63.9048198  54.5819687  60.3664213  63.3193354
  55.4347150  60.9551154  64.2173610  54.7366985  60.9073503  63.8645147
  51.2131299  67.0633262  53.8073349  50.7991698  66.4007392  53.4177190
  51.8978673  67.2111121  53.2869043  51.2529671  66.9873920  53.6729846
  54.5796593  66.2223348  54.5596965  54.1812877  66.3325618  53.7917785
  53.9647813  66.4305414  55.1423525  54.4295483  66.2696916  54.5328265
  60.1118296  46.2810388  54.9599191  59.6049161  45.5739527  54.8920369
  60.9085730  45.9503576  55.0900268  60.1545535  46.1283539  54.9698186
  56.0282312  52.7877000  50.8572855  55.7996005  52.8109701  50.0151213
  56.2880388  51.9634467  50.9767866  56.0328500  52.6693080  50.7498053
  50.3101540  54.6411473  60.4597955  49.7980443  54.0332656  60.8182987
  50.1381037  55.3568065  60.9271931  50.2091177  54.6574772  60.5814179
  45.1567255  53.0849048  63.1100317  44.9869845  53.7450423  62.5648524
  44.7133205  53.2955609  63.8312806  45.0666589  53.2135030  63.1361947
  54.1870611  52.5635718  62.9000211  54.7442041  52.3349527  62.2678676
  53.8631676  53.3241383  62.6235423  54.2217021  52.6419554  62.7656708
  42.0569320  55.9895914  58.3688807  41.5096039  55.3196559  58.4869675
  42.8461698  55.6225762  58.4332274  42.0921503  55.8360900  58.3957507
  51.9053728  55.6503371  63.8652218  52.6565055  55.9655048  64.1791772
  52.0976304  55.4482542  63.0386140  52.0445142  55.6670753  63.7895614
  58.7539018  51.7776937  51.1076013  58.7533245  51.6225594  51.9660290
  58.5495198  52.6239924  51.0517399  58.7238796  51.8797558  51.2263953
  56.4779870  56.4574439  54.7612220  56.9733535  55.7397434  54.7216241
  55.6679646  56.1545237  54.6466707  56.4323763  56.3072085  54.7385946
  58.5431689  59.2078126  57.4489349  58.9686761  58.6852548  56.8959774
  58.1788609  59.8058964  56.9277972  58.5518292  59.2188353  57.2898359
  48.1785769  67.5042344  56.2086695  48.4932328  68.3178732  56.2164476
  48.5879182  67.1192563  56.8768854  48.2853867  67.5671046  56.3090786
  55.1310288  62.9212391  53.7790507  55.6021467  63.6352653  53.9480492
  55.4670467  62.3211141  54.3150376  55.2505404  62.9383855  53.8822882
  57.2187273  64.5313704  65.9582579  57.3284239  63.7422265  66.3139326
  57.5478170  64.4419640  65.1556917  57.2839679  64.4019557  65.8924969
  52.0479783  47.6939861  60.7348601  52.1807689  46.8970855  61.0629577
  52.4324936  48.2206264  61.3146877  52.1236112  47.6539778  60.8692104
  55.7684235  62.7130325  60.5418199  55.2205181  62.0888209  60.2738264
  56.2297264  62.9024597  59.8262279  55.7551444  62.6489375  60.3968630
  55.1212139  44.6170187  57.3329695  54.3158102  44.5067917  57.6497533
  54.9918874  44.7182643  56.4759560  54.9832271  44.6153858  57.2537735
  58.5778099  50.7815679  57.9269391  57.9941088  51.2824886  57.5146959
  58.8982393  50.2745236  57.2933715  58.5391274  50.7807514  57.7727899
  45.5198789  61.4515452  55.8565303  46.1243646  61.4111287  55.2279124
  45.3126102  62.2986604  55.8869359  45.5787686  61.5703455  55.7681419
  55.3342561  63.7181398  57.0727540  56.1540935  63.5744364  57.3343836
  55.0536639  64.3427596  57.6143978  55.4139304  63.7891750  57.1915480
  40.7550071  60.4350070  55.7264226  40.6574349  59.6246341  56.0354283
  41.5378941  60.4141863  55.3410494  40.8566208  60.3117160  55.7151089
  71.8056211  71.3746249  50.0370417  71.7750216  72.2290886  50.2088686
  72.4037560  71.0741542  50.5956560  71.8893369  71.4562746  50.1445219
  59.3897036  79.9984618  50.5560579  58.6379936  79.6200156  50.3276624
  59.8383048  80.0303052  49.8079389  59.3446703  79.9470225  50.4118081
  64.8421996  80.4209988  45.9846126  64.5073364  81.0986909  45.5490348
  65.3548866  80.0315299  45.3962997  64.8687577  80.4634566  45.8332917
  64.3826287  82.3724256  51.9257237  64.7665667  82.9411155  51.3862013
  64.3185428  81.6473767  51.4463053  64.4299714  82.3499720  51.7751100
  67.8507717  72.5213944  57.4354999  68.3963677  73.1999031  57.4948968
  67.7924594  72.3801405  56.5756580  67.9223632  72.6005946  57.3167059
  60.9681792  80.0103010  52.8223351  61.0692155  79.2003364  53.1320479
  60.3723537  79.9159957  52.1923030  60.8954331  79.8768038  52.7749590
  69.6272786  73.9498551  48.3088727  69.5112312  74.7006237  48.7380865
  70.4228673  73.6922505  48.5584814  69.7277375  74.0233398  48.4092818
  60.8082532  84.9280599  54.2238207  61.4519987  85.3693764  54.6134366
  61.1338787  84.1234026  54.1368466  60.9514360  84.8745794  54.2683685
  54.1646837  76.0323297  52.4475685  53.9297021  75.1990949  52.3407954
  54.3032477  76.3127963  51.6336886  54.1502499  75.9506800  52.3118040
  56.4636924  68.2009028  55.3459993  55.8441956  67.6101675  55.1770007
  56.3620788  68.7920463  54.7124316  56.3574599  68.2013110  55.2264982
  61.5103112  77.9392574  49.5958069  61.8318953  78.4797782  48.9919377
  62.1575208  77.3689346  49.7280359  61.6529167  77.9351749  49.5265104
  63.5604820  69.9408569  49.6792456  64.2584984  70.1196697  50.1713919
  63.8757152  69.4178909  49.0562845  63.7100157  69.8902341  49.6594466
  56.1906057  71.7461309  57.5903562  56.0664754  72.3323755  58.2253380
  56.8424341  71.2521505  57.8915837  56.2679706  71.7600114  57.7289491
  63.7492755  76.3279014  49.6672247  64.1886390  75.7196115  50.1127020
  63.5997418  75.9486388  48.8957712  63.7914221  76.1817485  49.6191415
  61.2164398  74.9223026  56.8691073  61.8613401  74.4295469  56.5502021
  61.4566175  75.0647813  57.6957151  61.3474983  74.8700468  56.9440606
  63.7550489  77.7677932  56.5197965  64.0373732  76.9729338  56.2984721
  64.4836650  78.2458519  56.5403026  63.9040053  77.7212529  56.4900980
  61.7331683  65.3100966  53.7613730  61.4035013  65.7612110  53.0917429
  61.0576685  65.2317129  54.3086737  61.5842119  65.3652101  53.7436954
  67.3502092  74.6806196  46.6203016  67.2653387  75.5367162  46.7652585
  67.8386475  74.4050520  47.2885175  67.4090989  74.7663517  46.7405098
  68.9408091  61.2986489  52.0063341  68.6261532  61.9889967  52.4383763
  68.4235033  61.2431271  51.3048842  68.8172561  61.3921377  51.9660290
  68.2820525  71.2990990  48.1200751  67.7531996  71.5150623  48.7798058
  68.8045545  71.9927128  48.0401721  68.2808978  71.4334127  48.2056351
  60.1720133  75.1954207  46.9208219  59.5877348  75.7004238  47.3274083
  59.7690228  74.9696593  46.1804811  60.0259436  75.2362455  46.8713245
  55.7264161  80.9108968  53.7231891  55.2431739  81.6359457  53.6991475
  56.5387479  81.2085098  53.8342049  55.7754909  81.0611321  53.7359170
  61.7978315  79.7041148  56.3281705  61.2805257  79.3448563  55.7243014
  62.4952706  79.1803323  56.3387772  61.8243896  79.5738836  56.2411964
  64.6297347  71.4419859  45.3977140  64.8693351  71.6497842  44.5852483
  64.9513188  70.6377367  45.5066085  64.7134505  71.3533960  45.2937693
  58.5808358  81.4265144  53.8752171  59.2828938  80.9117133  53.9324927
  58.5005842  81.7539295  54.6799046  58.6732119  81.3979370  54.0024963
  73.2322536  69.5207695  57.2884217  72.3950957  69.5909882  57.5231812
  73.2010767  69.5232190  56.4158520  73.1040818  69.5317922  57.1943765
  59.6287265  71.6640730  63.0032586  59.8007769  71.5546625  63.8517867
  60.1656623  72.3095136  62.7663778  59.7332269  71.7432732  63.0937683
  58.2944702  65.7783573  45.9414791  58.1120275  65.9955454  45.1155784
  59.1570315  65.8922586  45.9973405  58.3949291  65.8273471  45.8269278
  57.9059134  77.6171496  53.3837779  58.7448033  77.8494428  53.4311540
  57.9370903  76.7475807  53.3144814  58.0340851  77.5228442  53.3802424
  58.5311837  78.0372371  57.6851084  59.0710062  77.8943502  58.3554457
  57.8481783  78.4369122  58.0535111  58.5103991  78.0752042  57.8385506
  63.9744421  62.7809984  48.9763815  64.7030582  62.6025939  48.5301971
  64.0639314  63.6228064  49.1870993  64.0951083  62.8793862  48.9417332
  67.9552722  73.7163371  52.8796109  68.7110237  74.1494886  52.9185018
  68.0615046  73.0668141  53.4530745  68.0822892  73.6840855  52.9694134
  70.9932893  77.5436649  53.6298512  70.5568125  77.5473391  54.3857483
  70.6595808  78.2242148  53.1978089  70.8795513  77.6449104  53.6779344
  53.9348982  74.2572662  57.8385506  53.6687397  73.4411778  57.9976496
  53.9487546  74.3025817  56.9681021  53.8973704  74.1429566  57.7338988
  70.9130376  64.5850476  55.8727940  71.5556284  64.6548581  56.4589855
  71.1653397  63.9179699  55.3707482  71.0452508  64.4976825  55.8855219
  57.8406729  69.0557746  44.4537264  57.1264906  68.7695925  44.8659697
  58.3250698  69.3954372  45.0943652  57.8066092  69.0639396  44.6092899
  58.6847588  67.7951040  60.4852514  57.9919385  67.3248020  60.7313245
  59.3007916  67.5689344  61.0594221  58.6732118  67.6918172  60.6061666
  74.1277239  74.2617569  52.5218149  74.7893673  73.7008237  52.4214057
  73.4868651  73.7669599  52.8470840  74.1306107  74.1053978  52.5550489
  65.0154047  77.5587700  44.8299072  65.4305195  77.2272724  44.1383568
  64.1845976  77.3256602  44.7019209  64.9542056  77.4758956  44.7089920
  54.3442396  75.0431441  55.1197250  54.1617969  75.0178327  54.2669542
  55.0792065  75.5130379  55.1586159  54.4256459  75.1092803  54.9995169
  70.4142070  75.2782951  52.2630138  70.6497659  75.4228150  51.4356988
  70.5631633  76.0425359  52.6561651  70.4707873  75.4122005  52.1993742
  57.4088147  71.7616444  61.6279359  58.1328120  71.7469474  62.1144254
  57.5104284  72.4711799  61.1301327  57.5306356  71.8641147  61.6258146
  72.2432527  74.1184617  50.0999742  72.5740744  74.6512257  49.4939836
  72.8165615  74.1723505  50.7561693  72.3766206  74.2054186  50.1077523
  67.4564416  71.9649520  50.7823322  67.5511270  72.7038814  51.2362947
  66.8323259  71.5366995  51.2157886  67.3773446  72.0110840  50.9131469
  54.3113306  71.9224942  55.2696317  54.8886809  71.7861392  55.9088562
  53.6127368  71.4660726  55.5241901  54.2934327  71.8347208  55.4018606
  67.7087437  73.8098259  44.0160274  67.6267600  73.8800446  44.8815261
  68.3467157  74.3728003  43.8244014  67.7907274  73.9037230  44.1150223
  61.0680608  73.5758997  53.4834800  60.8099852  72.7430732  53.4566099
  61.1229091  73.8016610  52.6427300  61.0380386  73.4856769  53.3554937
  66.1481658  65.6787448  53.5838893  65.4437985  65.1896633  53.7422812
  66.1966633  65.6909922  52.7127337  66.0511710  65.6077096  53.4778232
  60.0415320  71.1296760  53.9699695  59.4664912  71.2888928  54.6063656
  59.6650997  70.4932169  53.5068145  59.9018133  71.0594573  53.9954253
  63.7088609  69.6020109  58.8292073  63.3203042  69.1774327  58.1744264
  63.0443307  69.8502259  59.3369100  63.5535537  69.5758830  58.8079941
  73.3511878  69.3595114  51.6039903  73.0948443  68.5475055  51.4137786
  74.1941192  69.3672681  51.3770091  73.4377903  69.2407111  51.5424720
  49.7872139  70.7736835  51.9844135  49.8732391  70.3968703  52.7657665
  50.4147937  70.3997280  51.5064094  49.8928690  70.6622317  52.0289613
  67.5314970  63.2994738  56.3416057  67.9125482  62.6172909  56.7283932
  66.7278255  63.0104340  56.1591722  67.4691432  63.1561786  56.3720113
  64.8127547  73.8318714  47.0268880  65.6268186  74.1233606  46.9151652
  64.7486688  73.1778576  46.4527173  64.9230286  73.7783908  46.9257717
  60.6835455  77.3040231  52.1541192  61.3209402  77.0651979  52.6992986
  61.1090527  77.5077390  51.4194353  60.8411622  77.2991241  52.1258350
  55.3748098  79.5428568  56.0375496  55.4152243  79.8143419  55.2095276
  55.9342622  80.0670476  56.4533284  55.4631444  79.6604323  55.9767384
  61.3238270  72.5242521  46.4916082  61.7083423  72.3050228  47.2432627
  61.0749891  73.3505466  46.6217158  61.3440343  72.6140667  46.6217158
  61.4906811  65.8048936  66.2078666  61.1760252  66.5748499  65.9448229
  61.1696743  65.2419192  65.6230893  61.3965730  65.8359205  66.0820016
  72.0573458  76.2989159  57.5026750  71.7519275  77.0317215  57.8640066
  71.3379674  75.8927088  57.2219536  71.9060800  76.3470892  57.5139887
  63.0656927  77.7812654  53.8334978  63.1395936  77.6187826  54.6876828
  63.8826434  77.9702843  53.5895460  63.1973286  77.7849396  53.9233004
  77.7575250  72.9382159  56.8295095  77.6899750  72.9578118  55.9597681
  77.7430913  73.7812486  57.0550765  77.7454007  73.0655894  56.7347571
  56.8262684  78.1270517  50.8629422  56.0000802  78.3732254  50.7363701
  56.8874675  78.0482597  51.7291480  56.7136851  78.1515466  50.9718366
  59.0438708  64.1939458  51.8224862  58.1761133  64.2662057  51.8882471
  59.3313912  64.9961536  52.0112837  58.9578456  64.3233605  51.8599629
  68.1671597  64.3417317  60.1536184  68.9125189  64.1527127  59.7399609
  67.7508901  64.8675555  59.5950040  68.2156571  64.3919462  60.0100757
  61.6061513  80.7447397  48.5648452  61.8959812  80.3536378  47.8407678
  62.3364994  80.9264102  49.0053727  61.7568397  80.7141211  48.5231259
  75.5433867  71.7126545  55.1041689  76.0941789  71.0794614  55.3438781
  75.5277983  72.2441938  55.7957193  75.6219064  71.6975494  55.2420547
  62.1956258  75.5465143  59.6501582  61.6967952  76.2580910  59.7286471
  63.0056483  75.8665809  59.6119745  62.2412365  75.6991991  59.6558151
  59.5467429  82.7214779  51.6308602  59.3267724  82.4312134  52.4235269
  59.3261951  82.0629734  51.1026514  59.4815023  82.5814488  51.6697510
  58.4584376  74.8088096  53.8964303  58.1697625  74.1825567  54.4310031
  59.3267724  74.7508383  53.9628984  58.5444628  74.7075640  53.9855258
  69.2462274  69.9522879  54.2146285  68.9027040  69.2313214  54.5653535
  69.3455316  69.7436730  53.3724643  69.2104317  69.8147082  54.1417965
  61.7135384  84.0944169  50.4139294  62.3659442  83.5620611  50.6430320
  61.0160993  83.7412821  50.8007168  61.7066102  83.9633692  50.5051462
  58.6616649  76.4483347  49.8206668  59.4162617  76.8296386  50.0342131
  58.0687262  76.8994490  50.2753365  58.6853363  76.5712174  49.9189547
  69.7075303  76.4148583  49.7570273  70.2733335  77.0741793  49.6728816
  69.0603206  76.7598281  50.2286675  69.6954059  76.5630524  49.8143030
  61.1223316  68.4046187  64.9463881  60.3123092  68.7103967  64.8353723
  61.5998003  69.1251769  65.0616465  61.0726795  68.5560788  64.9470952
  59.9814876  77.6191908  55.1946784  59.4595629  77.7592200  55.8798648
  60.3688896  76.8602572  55.3848901  59.9618577  77.5277432  55.3247860
  56.9706060  67.6697717  49.2641738  56.6830856  67.2998987  48.5273686
  57.6576528  68.1392572  49.0025443  57.0294957  67.6844686  49.1156814
  66.1781881  79.3587367  49.1807352  65.9368557  78.6255228  48.7734417
  66.3583214  79.9074224  48.5273686  66.1689505  79.3309759  49.0237575
  61.4081201  74.6495927  50.5928275  61.2123984  75.2570662  49.9988578
  61.6315547  73.9563871  50.1119949  61.4115842  74.6373453  50.4344356
  59.8059731  71.5350665  50.7109143  60.5282383  71.6991823  50.2512949
  59.3267724  72.2560330  50.6048483  59.8423462  71.6648895  50.6274757
  67.7653239  67.8714464  56.0905828  66.9264340  67.8975743  55.8544091
  67.8357606  68.5185199  56.6711175  67.6521633  67.9710590  56.1414945
  57.4567348  73.9408737  59.8163283  57.9688445  74.2192991  59.1672043
  57.1703691  74.6798032  60.1826096  57.4902211  74.0911091  59.7753161
  66.2122517  64.7699841  50.8233444  66.9148870  64.5707589  50.3453402
  65.9466706  63.9975783  51.1302287  66.2769150  64.6262807  50.7978886
  71.6410763  73.0782451  53.3767070  71.5544737  73.2337877  54.2301849
  71.1861243  73.7220526  53.0026475  71.5614020  73.1958206  53.4474177
  54.5434255  68.4478929  50.1127019  54.6450391  69.2505091  50.4407995
  55.3390141  68.2466265  49.8150100  54.6762160  68.5364828  50.1162375
  60.9751074  66.0335126  59.8764325  60.7834271  66.0490260  60.7263748
  61.8249670  66.2298800  59.8530979  61.0726796  66.0649477  59.9987619
  55.3597987  68.5626108  57.8548141  55.2183478  67.7110048  57.9792649
  55.6438550  68.6054768  57.0310347  55.3805833  68.4425858  57.7515765
  65.5136579  70.3993198  51.9992629  65.2671293  70.3188949  52.8329418
  65.8421702  69.6146666  51.8055157  65.5257823  70.2719463  52.0940152
  69.4084628  77.1076557  55.7879411  69.2698987  77.8057603  56.2928153
  68.6284626  76.9525214  55.4315592  69.2727855  77.1876724  55.8105685
  67.7462713  73.4072932  62.0401792  67.7410751  72.5352749  62.0444219
  68.4523707  73.6061102  61.5671248  67.8507717  73.3076807  61.9708828
  61.4733606  73.1349916  61.4115612  61.6176982  73.7151124  60.7758722
  61.8209255  73.5126213  62.1165467  61.5461068  73.2770620  61.4214607
  63.6453524  72.3340085  59.1940744  62.8976838  72.5271099  58.7889022
  63.7995049  71.5085304  58.9564865  63.5575951  72.2405196  59.0986150
  60.5461361  81.3252688  58.2776639  60.6950925  80.7655604  57.6250044
  61.3261363  81.4044690  58.6609158  60.6835455  81.2538254  58.2373588
  70.9038001  76.4654811  46.5495910  70.5244809  75.6791949  46.5425199
  70.2404246  77.0141668  46.4067554  70.7496475  76.4299635  46.5276707
  63.8855301  66.2290635  60.0836148  64.3427915  66.9614610  60.2108940
  63.9611629  65.8057101  60.8423404  63.9646270  66.2747873  60.2137224
  56.1288292  66.4756455  61.1725591  55.5930481  65.8636813  61.4886359
  56.1906057  67.0504591  61.8259258  56.0583925  66.4703383  61.3161018
  68.3582627  59.4080511  53.9529991  68.4766195  59.8656974  53.2197293
  68.1844802  58.6025772  53.6666208  68.3501798  59.3574283  53.8030924
  63.7284909  80.0168330  50.3884736  64.4934800  79.7477974  50.0667400
  63.6262999  79.5318340  51.1054799  63.8266404  79.9057895  50.4464564
  61.7637679  68.2192739  56.9277972  60.9733753  68.0384199  57.2495308
  62.1598301  67.4419692  56.9108266  61.7054555  68.0780200  56.9730520
  66.2503569  77.0480514  42.3684685  67.0176554  77.1080639  41.9590537
  65.8034878  76.4760955  41.8841004  66.2976997  76.9717089  42.2362396
  67.1481365  75.8535170  54.6537418  66.4726367  75.6220402  55.1550805
  67.1573741  75.2456352  54.0279523  67.0499869  75.7294095  54.6353570
  64.2775509  70.6952998  61.4101471  64.2134650  71.5562955  61.2821607
  64.4172697  70.3784992  60.6097022  64.2890979  70.7753165  61.2729684
  69.1498099  78.7100302  46.8847596  69.2317937  79.5167288  46.5609047
  69.6347842  78.7296261  47.6088369  69.2335257  78.8320964  46.9434494
  62.9594603  73.3885138  55.5517674  62.5356852  73.5889637  54.8156692
  62.7839458  72.5413986  55.6641973  62.8705483  73.2933919  55.4591364
  58.2477048  73.8837189  50.9845646  58.4041667  73.8183992  51.8401638
  58.5877641  74.6585742  50.7724326  58.3210283  73.9886387  51.0800240
  64.7856192  73.2595073  49.8539009  65.3271738  72.7565454  50.3177630
  65.1002751  73.2060267  49.0428495  64.9120589  73.1774494  49.8022821
  62.9542642  78.6512424  47.1379037  63.0235462  77.7926963  47.2772038
  63.7331097  78.8684305  46.8098062  63.0795492  78.5565288  47.1096195
  65.9345462  68.1531377  59.9061310  66.1487431  67.5142292  59.3524664
  65.3179361  68.5977201  59.4769172  65.8750791  68.1241521  59.7611741
  68.0984550  69.7620442  60.8444617  67.2861231  69.4546333  60.9257790
  68.5574484  69.2819443  61.4087329  68.0464934  69.6456935  60.9399211
  67.5089804  77.6400114  51.2921561  67.1504459  77.8114757  52.0685594
  67.0228515  78.1013320  50.7349560  67.3848501  77.7339086  51.3246830
  65.3260190  61.2631313  54.8948653  64.4553748  61.2370034  54.8481962
  65.5800532  61.0908505  54.0774498  65.2353750  61.2341457  54.7668789
  62.2978170  73.3199280  43.8321796  62.5870695  74.0964162  44.1065370
  62.3849969  72.8088011  44.5336295  62.3532426  73.3591198  43.9764293
  62.3509331  63.2737541  56.3522123  61.8347819  62.5817733  56.4773702
  61.7903260  63.9408318  56.2984722  62.1915844  63.2700799  56.3628189
  64.4201564  63.8130501  58.1814976  64.0333317  63.8379533  58.9628505
  63.9334502  63.2472180  57.7289492  64.2914073  63.7326252  58.2302879
  70.3951544  70.3793156  56.8054678  69.9679152  70.2919505  56.0502777
  69.7577597  70.4870932  57.3909522  70.2381151  70.3825816  56.7800119
  64.0858706  60.6997487  60.4725235  64.7151824  61.2357787  60.1946306
  64.2544569  60.6074846  61.3238801  64.2036501  60.7658849  60.5573764
  63.8872621  65.4868682  62.7451647  64.7146050  65.2153831  62.8010261
  63.9080467  66.2829523  63.1015465  64.0125471  65.5648436  62.8066830
  58.4642111  72.6332544  55.9321908  57.6230117  72.5336419  56.1400802
  58.6732119  73.4028025  56.2836228  58.3706803  72.7324588  56.0149223
  55.9417678  70.2552081  53.7606658  55.5474375  70.3295093  52.9856768
  55.3857795  70.6410028  54.3115020  55.8020490  70.3233856  53.7274318
  67.5782624  63.2333375  53.4410537  67.7832218  63.1655683  54.2867534
  67.2509048  64.0392197  53.3731715  67.5597872  63.3419316  53.5570192
  62.2758776  70.5613944  55.1819505  61.9721913  70.0069932  55.7829913
  61.5738196  70.7406154  54.6947539  62.1274985  70.5058726  55.1989211
  61.3324873  67.8714463  49.7464207  61.6084607  67.1533376  49.3341775
  61.9323542  68.4699383  49.5385313  61.4618137  67.8534834  49.6544968
  60.3377127  77.7763664  59.8891603  60.2297482  77.7865726  60.7553661
  60.5472908  78.6018445  59.6996557  60.3527238  77.9004739  59.9895695
  70.8316312  63.7865140  52.9213303  70.2190626  64.2735542  53.3067035
  70.9280487  63.1108631  53.4650954  70.7554210  63.7583448  53.0592161
  64.8335393  65.5427981  48.0210802  65.2879140  65.7138541  48.7458647
  65.3075439  64.9296091  47.6208578  64.9703713  65.4778866  48.0684564
  58.3550919  75.0276307  57.3513541  57.7638852  75.6685805  57.3216556
  59.1171942  75.4513924  57.3244840  58.3799179  75.1852145  57.3428688
  58.7511541  66.1878304  58.0181558  59.2113023  66.2617234  58.7556682
  58.7967648  66.9859559  57.6681380  58.8262097  66.3172452  58.0754315
  60.3994891  66.8544999  62.5853585  60.0080456  66.2078346  63.0209363
  60.5680754  67.4456435  63.2047841  60.3665801  66.8459267  62.7416291
  62.1748413  72.2470515  49.1255809  62.9190458  72.6344791  49.3638759
  62.3209109  71.4027941  49.2896297  62.3058998  72.1800988  49.1849779
  64.0927989  64.0420774  54.1587671  63.2464034  64.2143582  54.0329021
  64.0899121  63.2370118  54.4953499  63.9675139  63.9481803  54.1898798
  65.1626289  67.8195988  55.0249729  64.6886243  67.2937751  55.5355040
  65.5344425  67.2725461  54.4564590  65.1476178  67.6611985  55.0164876
  55.5399319  69.8167495  60.3933274  56.4024932  69.7163204  60.3070604
  55.2091102  69.2362204  59.8318847  55.6184516  69.7159122  60.2978680
  71.4263020  72.8798364  56.4356509  71.1861243  72.0404779  56.4398936
  71.9055027  72.9598531  57.1597283  71.4615203  72.7679764  56.5431311
  67.0909789  68.7132543  48.0875482  66.5632807  68.7961287  47.3981191
  67.5505497  69.4550414  48.0840127  67.0811639  68.8353205  47.9850178
  73.4268207  69.6599821  54.3885768  73.1877977  69.6195655  53.5506553
  73.5902108  70.5070973  54.5151489  73.4158510  69.7791906  54.2839250
  70.0314237  74.0449771  60.3190813  70.7548436  73.5922297  60.1401833
  69.7664199  74.3254436  59.5363141  70.0995510  74.0200739  60.1769529
  58.9001105  68.6409944  57.0543693  58.2754175  68.6528336  56.4469645
  58.5646700  69.1170119  57.7034933  58.7586597  68.7128461  57.0600261
  59.0842854  66.9835063  43.1116378  58.7355658  67.6354788  43.5747927
  58.6039300  66.9692176  42.3840249  58.9613098  67.0778116  43.0727469
  55.6126781  76.7010404  58.4947457  55.0826705  76.0102843  58.5442432
  55.8851874  76.6920590  57.6660165  55.5751503  76.5977536  58.3794873
  66.6446871  77.2836107  47.2185139  67.3681070  77.7494220  47.0749713
  66.2047462  77.3509716  46.4682736  66.6862563  77.3619943  47.0869921
  65.8133026  74.1433649  58.4685828  65.1990019  73.5991699  58.7634464
  66.3300311  73.6297885  57.9891645  65.7988689  73.9870058  58.4410057
  65.0529323  75.2137919  56.2030127  64.6256931  74.5887638  55.7695563
  65.0454268  74.9312841  57.0289134  64.9888465  75.0790700  56.2609955
  58.1691851  70.2503092  59.2718561  58.3285337  69.4946416  59.6770283
  57.9884744  70.7994031  59.9259299  58.1657210  70.2196906  59.4281267
  66.1112154  62.4164328  59.8269351  65.6152715  62.6128002  59.1360917
  66.8681216  62.8156996  59.6558152  66.1498978  62.5042061  59.6989487
  63.3815033  66.0906673  56.4172661  63.4057520  65.5566786  55.7285441
  63.6326507  65.5823982  57.0798252  63.4224952  65.9367577  56.4137306
  50.8922623  73.3738168  55.8515805  50.7866072  73.3285013  54.9867889
  50.1422843  73.7191949  56.1330090  50.7658226  73.4179077  55.7653135
  59.6616355  64.8177492  55.7978405  59.7014727  65.3186698  56.5113113
  58.8366020  64.9087885  55.5284328  59.5455881  64.9059308  55.8628944
  61.8445968  74.3838232  63.8998700  60.9941599  74.5209946  64.0356345
  62.0074096  73.6502010  64.3446402  61.7429832  74.2952333  63.9854299
  61.0830719  71.3338001  58.0952304  60.2522648  71.5011819  57.8887553
  61.0282236  70.9573952  58.8801190  60.9520134  71.3027733  58.1800833
  58.8914502  64.8246894  63.7308715  59.5167205  64.2809027  64.0038147
  58.4364982  64.3441812  63.1616506  58.9162763  64.6736376  63.6870309
  59.4566763  69.6093593  48.6242422  59.5969724  70.1066057  49.3271064
  59.9549295  68.9079887  48.7656636  59.5507843  69.5795572  48.7494001
  59.4866985  70.4760704  45.9534999  60.1212064  71.0721129  45.8884461
  59.5692596  70.1764162  46.7680869  59.5923536  70.5201612  46.0638086
  72.4649551  73.0076181  58.8221363  73.0567391  73.6473432  58.8539561
  72.9008545  72.3099218  59.1113430  72.6167982  72.9994532  58.8702196
  61.0645968  66.4074679  45.9280441  61.3861809  65.9277762  45.2739703
  61.3272912  67.2174326  45.7371253  61.1511993  66.4564577  45.8035933
  64.2942941  77.4293554  59.4479257  63.7868032  77.9829401  59.8919888
  63.9969587  77.4901844  58.6298032  64.1747826  77.5199865  59.3927714
  66.4605123  65.7946873  58.2903920  66.8860194  65.3419400  57.6787446
  65.8462116  65.2406944  58.5668708  66.4333768  65.6460850  58.2408945
  55.9919973  72.6728545  49.2224545  56.5012202  73.2693052  49.6035851
  56.4654245  72.4054518  48.5400965  56.1363349  72.7214360  49.1779068
  66.9050721  81.3456812  47.3783201  66.1880031  81.1717674  46.9130438
  67.5557458  81.1109384  46.8458687  66.8952571  81.2852604  47.2312418
  64.8999346  62.2661973  51.6994497  64.2567664  62.1159620  52.2679636
  64.5598753  62.0204319  50.9343602  64.7544423  62.2074096  51.6697512
  69.4898692  70.2221400  51.1224506  68.8189882  70.7651102  50.9937571
  70.1838442  70.6916255  50.8806200  69.4927560  70.3719671  51.0680033
  63.5385426  82.3618112  56.3536264  63.3151080  81.6036941  56.7220290
  63.0495269  82.3916133  55.6316704  63.4328875  82.2540337  56.3013005
  69.6526820  66.6777284  54.0314879  70.0054430  66.2507007  54.7060678
  68.7941621  66.5928127  54.1615955  69.5776264  66.6022024  54.1509889
  58.3510505  69.3084803  52.0897725  57.6322494  69.7248936  52.3570589
  58.7222867  69.8739042  51.5389364  58.3002436  69.4534085  52.0480532
  67.6510085  69.9412652  57.9799721  67.6308013  69.7595947  58.8334500
  67.6989286  70.8124671  57.9559305  67.6544726  70.0429191  58.1023016
  62.1863883  82.5818570  53.8073349  61.7724281  81.9192700  53.4177190
  62.8711257  82.7296429  53.2869043  62.2262254  82.5059228  53.6729846
  65.5529177  81.7408655  54.5596965  65.1545460  81.8510926  53.7917785
  64.9380396  81.9490722  55.1423525  65.4028066  81.7882223  54.5328265
  64.1257079  68.3482803  47.4271105  63.5321918  68.6699800  46.8755672
  64.1632357  67.5023899  47.2192211  64.0431468  68.2707132  47.3153876
  71.0850880  61.7995696  54.9599191  70.5781744  61.0924835  54.8920369
  71.8818313  61.4688884  55.0900268  71.1278119  61.6468847  54.9698186
  67.0014896  68.3062308  50.8572855  66.7728589  68.3295009  50.0151213
  67.2612972  67.4819775  50.9767866  67.0061084  68.1878388  50.7498053
  61.2834124  70.1596781  60.4597955  60.7713027  69.5517964  60.8182987
  61.1113620  70.8753373  60.9271931  61.1823761  70.1760080  60.5814179
  56.1299839  68.6034356  63.1100317  55.9602429  69.2635731  62.5648524
  55.6865789  68.8140917  63.8312806  56.0399172  68.7320338  63.1361947
  60.0559658  66.8438854  52.1527051  60.5317024  67.2055934  51.5177232
  59.5548258  67.4995322  52.4327194  60.0525017  66.9933043  52.1003792
  65.1603194  68.0821025  62.9000211  65.7174624  67.8534835  62.2678676
  64.8364259  68.8426691  62.6235423  65.1949604  68.1604862  62.7656708
  53.0301903  71.5081222  58.3688807  52.4828623  70.8381867  58.4869675
  53.8194281  71.1411070  58.4332274  53.0654087  71.3546208  58.3957507
  62.8786312  71.1688679  63.8652218  63.6297639  71.4840356  64.1791772
  63.0708888  70.9667850  63.0386140  63.0177726  71.1856061  63.7895614
  62.0986311  68.9880054  45.5200435  62.4785276  69.0059683  44.7351549
  61.3578907  69.4334043  45.3991282  62.0455149  69.0561829  45.3864003
  69.7271602  67.2962245  51.1076013  69.7265828  67.1410902  51.9660290
  69.5227782  68.1425232  51.0517399  69.6971380  67.3982866  51.2263953
  51.7888873  70.7202030  55.5234830  51.6110634  70.2678639  56.2489746
  51.5007895  71.5228191  55.7073308  51.7201826  70.7724587  55.6578333
  67.4512454  71.9759747  54.7612220  67.9466119  71.2582742  54.7216241
  66.6412229  71.6730545  54.6466707  67.4056347  71.8257393  54.7385946
  62.8971065  75.8257560  46.9109225  62.0882388  75.5024234  46.8642534
  63.4045974  75.1190782  46.8437473  62.8520732  75.6738877  46.8939519
  53.5261343  73.2529753  52.6356589  52.6606862  73.2415444  52.5239360
  53.6260158  73.0659976  53.4827728  53.4135509  73.2235815  52.7445533
  69.5164273  74.7263434  57.4489349  69.9419344  74.2037856  56.8959774
  69.1521192  75.3244272  56.9277972  69.5250875  74.7373661  57.2898359
  59.1518352  83.0227652  56.2086695  59.4664911  83.8364040  56.2164476
  59.5611766  82.6377871  56.8768854  59.2586450  83.0856354  56.3090786
  66.1042872  78.4397699  53.7790507  66.5754050  79.1537961  53.9480492
  66.4403051  77.8396449  54.3150376  66.2237987  78.4569163  53.8822882
  63.0212367  63.2125169  60.7348601  63.1540273  62.4156163  61.0629577
  63.4057520  63.7391572  61.3146877  63.0968696  63.1725086  60.8692104
  66.0944722  60.1355495  57.3329695  65.2890686  60.0253225  57.6497533
  65.9651458  60.2367951  56.4759560  65.9564855  60.1339165  57.2537735
  69.5510683  66.3000987  57.9269391  68.9673672  66.8010194  57.5146959
  69.8714977  65.7930543  57.2933715  69.5123858  66.2992822  57.7727899
  62.0905482  65.2141582  48.2028066  62.9121176  65.3839895  47.9609761
  61.6275133  65.3688843  47.4794364  62.1436644  65.2623315  48.0599711
  60.6800814  63.2084344  58.9826495  61.2245227  62.8675471  59.5730837
  60.7337750  64.0669806  59.1247780  60.7689933  63.2839604  59.0908368
  56.4931373  76.9700760  55.8565303  57.0976230  76.9296594  55.2279124
  56.2858685  77.8171912  55.8869359  56.5520270  77.0888763  55.7681419
  66.3075145  79.2366705  57.0727540  67.1273518  79.0929672  57.3343836
  66.0269222  79.8612904  57.6143978  66.3871888  79.3077058  57.1915480
  51.7282655  75.9535378  55.7264226  51.6306933  75.1431649  56.0354283
  52.5111525  75.9327171  55.3410494  51.8298791  75.8302468  55.7151089
  38.5809285   1.7568457  36.9710463  38.5503289   2.6113093  37.1428733
  39.1790633   1.4563749  37.5296607  38.6646443   1.8384953  37.0785266
  31.7808970   0.8444108  41.7263394  30.9246865   1.0052606  41.7772511
  31.8276623  -0.0263828  41.7468455  31.6608081   0.7394910  41.7369460
  26.1650109  10.3806826  37.4900625  25.4133009  10.0022364  37.2616671
  26.6136121  10.4125259  36.7419436  26.1199776  10.3292433  37.3458128
  35.0902686   7.1130633  51.3323850  35.7969453   6.6182664  51.4610784
  35.2790622   7.5539715  50.6026508  35.2230592   7.1048984  51.2432896
  31.6175069  10.8032195  32.9186173  31.2826438  11.4809117  32.4830395
  32.1301940  10.4137506  32.3303044  31.6440650  10.8456773  32.7672964
  31.1579360  12.7546464  38.8597284  31.5418740  13.3233362  38.3202059
  31.0938502  12.0295974  38.3803100  31.2052788  12.7321927  38.7091147
  34.6260791   2.9036152  44.3695046  35.1716751   3.5821238  44.4289015
  34.5677667   2.7623612  43.5096627  34.6976705   2.9828153  44.2507106
  27.7434865  10.3925218  39.7563398  27.8445228   9.5825572  40.0660526
  27.1476611  10.2982164  39.1263077  27.6707404  10.2590246  39.7089636
  36.4025859   4.3320759  35.2428773  36.2865385   5.0828445  35.6720911
  37.1981746   4.0744712  35.4924860  36.5030449   4.4055606  35.3432865
  27.5835605  15.3102807  41.1578254  28.2273061  15.7515971  41.5474412
  27.9091861  14.5056233  41.0708513  27.7267434  15.2568002  41.2023731
  20.9399910   6.4145504  39.3815732  20.7050094   5.5813157  39.2748000
  21.0785550   6.6950170  38.5676933  20.9255572   6.3329008  39.2458087
  23.2389997  -1.4168765  42.2800039  22.6195029  -2.0076118  42.1110054
  23.1373861  -0.8257330  41.6464363  23.1327673  -1.4164683  42.1605029
  28.2856185   8.3214782  36.5298116  28.6072026   8.8619989  35.9259424
  28.9328281   7.7511553  36.6620406  28.4282240   8.3173957  36.4605151
  30.3357893   0.3230777  36.6132502  31.0338058   0.5018904  37.1053966
  30.6510225  -0.1998884  35.9902892  30.4853230   0.2724549  36.5934513
  22.9659130   2.1283517  44.5243608  22.8417827   2.7145962  45.1593427
  23.6177415   1.6343712  44.8255883  23.0432780   2.1422321  44.6629538
  30.5245828   6.7101222  36.6012294  30.9639464   6.1018322  37.0467067
  30.3750491   6.3308595  35.8297759  30.5667294   6.5639693  36.5531461
  27.9917471   5.3045234  43.8031119  28.6366474   4.8117677  43.4842068
  28.2319248   5.4470020  44.6297198  28.1228056   5.2522676  43.8780653
  30.5303563   8.1500139  43.4538012  30.8126805   7.3551545  43.2324768
  31.2589723   8.6280727  43.4743073  30.6793126   8.1034736  43.4241027
  28.5084756  -4.3076827  40.6953777  28.1788086  -3.8565683  40.0257476
  27.8329758  -4.3860663  41.2426784  28.3595193  -4.2525691  40.6777000
  34.1255165   5.0628403  33.5543063  34.0406460   5.9189370  33.6992632
  34.6139548   4.7872727  34.2225222  34.1844062   5.1485724  33.6745145
  35.0573598   1.6813197  35.0540798  34.5285069   1.8972831  35.7138105
  35.5798618   2.3749336  34.9741768  35.0562051   1.8156334  35.1396398
  40.5121651   7.2559502  40.4273843  39.6819354   7.4670145  40.5907259
  40.4630903   6.4296556  40.1516126  40.3828386   7.1649108  40.4111208
  26.9473206   5.5776414  33.8548266  26.3630421   6.0826445  34.2614130
  26.5443301   5.3518801  33.1144858  26.8012510   5.6184662  33.8053292
  22.5017234  11.2931175  40.6571938  22.0184813  12.0181665  40.6331521
  23.3140553  11.5907305  40.7682096  22.5507982  11.4433529  40.6699217
  28.5731388  10.0863356  43.2621752  28.0558330   9.7270771  42.6583060
  29.2705780   9.5625530  43.2727818  28.5996970   9.9561044  43.1752011
  32.2294980  10.5358170  49.2237925  32.3178326  10.3484310  50.0716136
  32.6584693   9.8895599  48.8242772  32.3057083  10.4121178  49.2909677
  29.7965440   9.8189330  48.2055587  29.2336275   9.4061940  48.7295249
  30.5586464   9.7442235  48.6248731  29.8259889   9.7466730  48.3448588
  31.4050420   1.8242066  32.3317187  31.6446424   2.0320050  31.5192530
  31.7266261   1.0199575  32.4406131  31.4887578   1.7356167  32.2277740
  25.3561432  11.8087351  40.8092218  26.0582011  11.2939340  40.8664974
  25.2758915  12.1361502  41.6139093  25.4485192  11.7801577  40.9365010
  40.0075609  -0.0970098  44.2224264  39.1704030  -0.0267911  44.4571859
  39.9763840  -0.0945603  43.3498566  39.8793892  -0.0859871  44.1283812
  26.4040338   2.0462938  49.9372633  26.5760842   1.9368833  50.7857914
  26.9409696   2.6917343  49.7003825  26.5085342   2.1254940  50.0277729
  25.0697775  -3.8394219  32.8754838  24.8873348  -3.6222338  32.0495831
  25.9323388  -3.7255207  32.9313452  25.1702365  -3.7904321  32.7609325
  24.6812207   7.9993703  40.3177826  25.5201106   8.2316636  40.3651587
  24.7123976   7.1298014  40.2484861  24.8093925   7.9050649  40.3142470
  25.3064910   8.4194578  44.6191131  25.8463135   8.2765709  45.2894504
  24.6234856   8.8191329  44.9875157  25.2857064   8.4574249  44.7725553
  34.7305795   4.0985579  39.8136156  35.4863310   4.5317093  39.8525064
  34.8368119   3.4490349  40.3870792  34.8575966   4.0663063  39.9034181
  37.7685966   7.9258856  40.5638559  37.3321198   7.9295598  41.3197530
  37.4348882   8.6064355  40.1318136  37.6548586   8.0271312  40.6119391
  32.3415040   9.9667189  51.8881709  33.1255456  10.0798037  52.2537451
  32.1411634   9.1408326  52.0840395  32.4281065   9.8613908  51.9716095
  20.7102055   4.6394869  44.7725553  20.4440470   3.8233986  44.9316543
  20.7240619   4.6848024  43.9021068  20.6726777   4.5251774  44.6679035
  24.6159802  -0.5620047  31.3877311  23.9017979  -0.8481867  31.7999743
  25.1003771  -0.2223421  32.0283698  24.5819165  -0.5538397  31.5432946
  25.4600662  -1.8226753  47.4192560  24.7672458  -2.2929773  47.6653292
  26.0760989  -2.0488448  47.9934268  25.4485191  -1.9259621  47.5401713
  32.4985433  11.8777291  45.5348164  31.7000679  11.6376791  45.7922033
  32.9471445  11.9291684  46.2815212  32.4460044  11.8499682  45.6833089
  40.9030312   4.6439776  39.4558196  41.5646746   4.0830444  39.3554104
  40.2621724   4.1491807  39.7810887  40.9059180   4.4876185  39.4890536
  31.7907120   7.9409907  31.7639119  32.2058269   7.6094931  31.0723615
  30.9599050   7.7078810  31.6359256  31.7295129   7.8581163  31.6429966
  21.1195469   5.4253648  42.0537297  20.9371042   5.4000534  41.2009589
  21.8545138   5.8952586  42.0926206  21.2009533   5.4915011  41.9335215
  37.1895143   5.6605158  39.1970185  37.4250732   5.8050357  38.3697035
  37.3384707   6.4247566  39.5901698  37.2460946   5.7944213  39.1333788
  24.1841220   2.1438651  48.5619406  24.9081193   2.1291682  49.0484300
  24.2857357   2.8534006  48.0641374  24.3059430   2.2463354  48.5598192
  39.0185600   4.5006824  37.0339788  39.3493817   5.0334464  36.4279883
  39.5918688   4.5545712  37.6901739  39.1519279   4.5876393  37.0417570
  31.5586170   5.6237736  53.4268353  30.7659151   5.9381248  53.6120972
  31.6735097   5.8389204  52.5889137  31.4581580   5.7021573  53.3306687
  34.2317489   2.3471727  37.7163368  34.3264343   3.0861021  38.1702994
  33.6076332   1.9189202  38.1497933  34.1526519   2.3933048  37.8471516
  32.4869963   5.5257940  48.3653649  33.0608824   4.8885184  48.5202213
  32.4084766   5.5262022  47.4963307  32.5603198   5.4323051  48.2600060
  21.0866379   2.3047149  42.2036364  21.6639882   2.1683600  42.8428609
  20.3880441   1.8482933  42.4581948  21.0687401   2.2169415  42.3358653
  34.4840510   4.1920467  30.9500321  34.4020673   4.2622654  31.8155307
  35.1220231   4.7550211  30.7584061  34.5660348   4.2859438  31.0490270
  27.8433681   3.9581205  40.4174847  27.5852926   3.1252940  40.3906146
  27.8982164   4.1838818  39.5767347  27.8133459   3.8678976  40.2894984
  32.9234731  -3.9390345  40.5178939  32.2191058  -4.4281159  40.6762859
  32.9719706  -3.9267870  39.6467384  32.8264783  -4.0100697  40.4118279
  26.8168393   1.5118967  40.9039742  26.2417985   1.6711136  41.5403703
  26.4404070   0.8754376  40.4408192  26.6771206   1.4416780  40.9294300
  30.4841682  -0.0157684  45.7632120  30.0956115  -0.4403466  45.1084311
  29.8196380   0.2324466  46.2709147  30.3288610  -0.0418962  45.7419988
  40.1264951  -0.2582679  38.5379950  39.8701516  -1.0702737  38.3477833
  40.9694265  -0.2505112  38.3110137  40.2130977  -0.3770681  38.4764767
  31.5880620   4.2140921  33.9608927  32.4021259   4.5055814  33.8491698
  31.5239762   3.5600783  33.3867220  31.6983359   4.1606116  33.8597764
  37.8090111   6.8966917  48.3738503  37.5728748   6.0654982  48.2550563
  38.4533339   6.8452524  48.9593347  37.8684781   6.7664605  48.4424396
  27.4588529   7.6862438  39.0881239  28.0962476   7.4474186  39.6333032
  27.8843600   7.8899597  38.3534400  27.6164695   7.6813449  39.0598396
  22.1501171   9.9250775  42.9715543  22.1905316  10.1965626  42.1435322
  22.7095695  10.4492683  43.3873331  22.2384517  10.0426530  42.9107431
  28.0991344   2.9064728  33.4256128  28.4836496   2.6872435  34.1772674
  27.8502964   3.7327674  33.5557205  28.1193416   2.9962875  33.5557205
  28.2659884  -3.8128857  53.1418713  27.9513325  -3.0429294  52.8788275
  27.9449817  -4.3758601  52.5570940  28.1718803  -3.7818588  53.0160063
  38.8326531   6.6811366  44.4366797  38.5272348   7.4139423  44.7980113
  38.1132747   6.2749295  44.1559583  38.6813873   6.7293099  44.4479934
  29.8410001   8.1634861  40.7675025  29.9149009   8.0010033  41.6216875
  30.6579507   8.3525051  40.5235507  29.9726359   8.1671603  40.8573051
  44.5328323   3.3204367  43.7635141  44.4652824   3.3400326  42.8937728
  44.5183986   4.1634694  43.9890812  44.5207080   3.4478101  43.6687618
  23.6015757   8.5092724  37.7969469  22.7753875   8.7554461  37.6703748
  23.6627748   8.4304805  38.6631527  23.4889924   8.5337673  37.9058413
  42.3186941   2.0948753  42.0381736  42.8694862   1.4616822  42.2778828
  42.3031056   2.6264146  42.7297240  42.3972137   2.0797701  42.1760594
  28.9709331   5.9287350  46.5841629  28.4721025   6.6403118  46.6626518
  29.7809556   6.2488017  46.5459792  29.0165438   6.0814199  46.5898198
  26.3220502  13.1036987  38.5648648  26.1020797  12.8134341  39.3575315
  26.1015024  12.4451942  38.0366561  26.2568096  12.9636695  38.6037557
  25.2337449   5.1910303  40.8304350  24.9450698   4.5647774  41.3650077
  26.1020797   5.1330591  40.8969031  25.3197701   5.0897847  40.9195305
  36.0215347   0.3345086  41.1486332  35.6780113  -0.3864578  41.4993582
  36.1208389   0.1258938  40.3064690  35.9857390   0.1969290  41.0758012
  25.4369722   6.8305554  36.7546715  26.1915690   7.2118593  36.9682178
  24.8440335   7.2816698  37.2093412  25.4606436   6.9534382  36.8529594
  36.4828376   6.7970791  36.6910320  37.0486409   7.4564000  36.6068863
  35.8356279   7.1420489  37.1626722  36.4707132   6.9452732  36.7483077
  27.8976389  -1.2131605  51.8803927  27.0876165  -0.9073826  51.7693770
  28.3751076  -0.4926023  51.9956512  27.8479868  -1.0617004  51.8810999
  26.7567949   8.0014115  42.1286831  26.2348703   8.1414407  42.8138695
  27.1441969   7.2424780  42.3188948  26.7371650   7.9099639  42.2587907
  23.7459133  -1.9480076  36.1981785  23.4583929  -2.3178805  35.4613733
  24.4329601  -1.4785220  35.9365490  23.8048030  -1.9333106  36.0496861
  32.9534954   9.7409575  36.1147399  32.7121630   9.0077435  35.7074464
  33.1336287  10.2896432  35.4613733  32.9442578   9.7131966  35.9577622
  28.1834275   5.0318135  37.5268322  27.9877057   5.6392869  36.9328625
  28.4068620   4.3386079  37.0459996  28.1868916   5.0195660  37.3684402
  26.5812805   1.9172872  37.6449190  27.3035457   2.0814031  37.1852996
  26.1020797   2.6382537  37.5388530  26.6176535   2.0471102  37.5614804
  34.5406312  -1.7463329  43.0245875  33.7017413  -1.7202050  42.7884138
  34.6110680  -1.0992593  43.6051222  34.4274706  -1.6467203  43.0754992
  24.2320421   4.3230945  46.7503330  24.7441518   4.6015198  46.1012090
  23.9456764   5.0620239  47.1166143  24.2655285   4.4733299  46.7093208
  38.4163836   3.4604658  40.3107117  38.3297811   3.6160084  41.1641895
  37.9614316   4.1042734  39.9366522  38.3367093   3.5780413  40.3814223
  21.3187328  -1.1698863  37.0467066  21.4203464  -0.3672702  37.3748042
  22.1143214  -1.3711527  36.7490147  21.4515233  -1.0812965  37.0502422
  27.7504147  -3.5842667  46.8104371  27.5587344  -3.5687532  47.6603795
  28.6002743  -3.3878992  46.7871026  27.8479869  -3.5528315  46.9327666
  22.1351060  -1.0551685  44.7888188  21.9936552  -1.9067744  44.9132696
  22.4191623  -1.0123024  43.9650394  22.1558906  -1.1751935  44.6855812
  32.2889652   0.7815405  38.9332676  32.0424366   0.7011156  39.7669465
  32.6174775  -0.0031127  38.7395204  32.3010896   0.6541670  39.0280199
  36.1837701   7.4898764  42.7219457  36.0452060   8.1879810  43.2268200
  35.4037699   7.3347421  42.3655639  36.0480928   7.5698931  42.7445732
  34.5215786   3.7895140  48.9741839  34.5163825   2.9174956  48.9784266
  35.2276780   3.9883309  48.5011295  34.6260790   3.6899014  48.9048874
  28.2486679   3.5172124  48.3455659  28.3930055   4.0973332  47.7098769
  28.5962328   3.8948420  49.0505514  28.3214141   3.6592828  48.3554654
  30.4206597   2.7162292  46.1280791  29.6729911   2.9093306  45.7229069
  30.5748122   1.8907512  45.8904912  30.3329024   2.6227403  46.0326197
  27.3214434  11.7074896  45.2116686  27.4703998  11.1477811  44.5590090
  28.1014437  11.7866897  45.5949205  27.4588528  11.6360461  45.1713635
  37.6791074   6.8477018  33.4835957  37.2997883   6.0614156  33.4765246
  37.0157319   7.3963875  33.3407601  37.5249549   6.8121842  33.4616753
  29.8467735  11.8789538  46.4901177  29.7711406  11.2098349  47.0451965
  29.7757594  12.5807327  47.0041843  29.8248342  11.8834446  46.6478025
  30.6608374  -3.3887157  47.0176195  31.1180988  -2.6563183  47.1448987
  30.7364703  -3.8120692  47.7763450  30.7399344  -3.3429919  47.1477271
  30.5037982  10.3990537  37.3224783  31.2687873  10.1300181  37.0007447
  30.4016072   9.9140548  38.0394846  30.6019477  10.2880102  37.3804610
  28.5390752  -1.3985053  43.8618019  27.7486827  -1.5793593  44.1835354
  28.9351375  -2.1758101  43.8448313  28.4807628  -1.5397592  43.9070567
  33.0256643   7.4302721  29.3024732  33.7929628   7.4902846  28.8930584
  32.5787951   6.8583162  28.8181051  33.0730070   7.3539297  29.1702442
  33.9234438   6.2357377  41.5877464  33.2479440   6.0042609  42.0890852
  33.9326814   5.6278560  40.9619570  33.8252943   6.1116302  41.5693617
  31.0528582   1.0775206  48.3441517  30.9887723   1.9385162  48.2161654
  31.1925770   0.7607199  47.5437069  31.0644052   1.1575372  48.2069730
  35.9251173   9.0922509  33.8187642  36.0071010   9.8989495  33.4949093
  36.4100915   9.1118468  34.5428416  36.0088331   9.2143172  33.8774541
  29.7347676   3.7707345  42.4857720  29.3109925   3.9711844  41.7496739
  29.5592531   2.9236193  42.5982020  29.6458557   3.6756127  42.3931410
  29.2359369  15.2857858  44.9479178  29.7255300  14.5868647  44.7654842
  28.6643602  14.9881728  45.5355235  29.2243899  15.1384082  45.0080218
  25.0230121   4.2659397  37.9185693  25.1794740   4.2006199  38.7741685
  25.3630714   5.0407949  37.7064373  25.0963356   4.3708595  38.0140287
  31.5609265   3.6417280  36.7879056  32.1024811   3.1387661  37.2517677
  31.8755825   3.5882475  35.9768541  31.6873663   3.5596701  36.7362868
  35.4326373   7.8519928  53.9005968  36.2461238   7.5805076  54.0611101
  35.2721339   7.5527468  53.0966164  35.5296321   7.7674854  53.8051374
  29.7295715   9.0334632  34.0719084  29.7988536   8.1749170  34.2112085
  30.5084170   9.2506513  33.7438109  29.8548565   8.9387496  34.0436241
  32.7098535  -1.4646415  46.8401357  32.9240504  -2.1035501  46.2864711
  32.0932434  -1.0200591  46.4109218  32.6503864  -1.4936272  46.6951788
  34.1203203  11.4572333  38.2855577  33.7282995  11.1539048  37.5678444
  34.2756275  12.2941423  38.0960531  34.0856793  11.5356170  38.1512075
  21.5964382   1.4494347  38.2346460  21.9763347   1.8678892  37.5706727
  21.0219747   2.0307803  38.5415303  21.5675707   1.5972206  38.1823201
  34.8737623   0.1442650  47.7784664  34.0614305  -0.1631460  47.8597836
  35.3327557  -0.3358350  48.3427376  34.8218008   0.0279142  47.8739258
  34.2842878   8.0222322  38.2261608  33.9257532   8.1936965  39.0025640
  33.7981588   8.4835528  37.6689607  34.1601574   8.1161293  38.2586877
  29.0731243   3.7021487  30.7661842  29.3623768   4.4786370  31.0405417
  29.1603042   3.1910219  31.4676342  29.1285499   3.7413406  30.9104340
  31.9691130   1.5502721  52.5613366  32.4390762   2.1744838  52.9481240
  32.0153011   0.8819697  53.1206581  32.0459006   1.5437402  52.7013437
  35.4447617   8.9126218  49.1728809  36.0827337   8.4186413  48.8391265
  34.8021708   8.8403618  48.5881036  35.4441843   8.8285226  49.0371164
  37.1704617   0.7615364  43.7394725  36.7432225   0.6741712  42.9842824
  36.5330670   0.8693139  44.3249569  37.0134224   0.7648024  43.7140166
  30.6625694  -4.1309111  49.6791694  31.4899123  -4.4023962  49.7350308
  30.6833540  -3.3348269  50.0355512  30.7878544  -4.0529357  49.7406877
  35.5001874   9.6046026  45.8134166  36.2894252   9.2535091  45.9336247
  35.6745471  10.4182415  45.5510799  35.6422155   9.6731883  45.7922034
  25.2395184   3.0154752  42.8661954  24.3983191   2.9158626  43.0740848
  25.4485192   3.7850232  43.2176275  25.1459877   3.1146795  42.9489269
  22.7170751   0.6374289  40.6946705  22.3227449   0.7117301  39.9196815
  22.1610868   1.0232235  41.2455067  22.5773563   0.7056063  40.6614365
  29.0511849   0.9436151  42.1159552  28.7474986   0.3892139  42.7169960
  28.3491270   1.1228361  41.6287586  28.9028059   0.8880933  42.1329258
  28.1077946  -1.7463329  36.6804254  28.3837680  -2.4644417  36.2681821
  28.7076615  -1.1478409  36.4725360  28.2371211  -1.7642958  36.5885015
  27.1130200   8.1585872  46.8231650  27.0050555   8.1687934  47.6893708
  27.3225981   8.9840652  46.6336604  27.1280311   8.2826947  46.9235741
  31.6088466  -4.0749812  34.9550849  32.0632213  -3.9039251  35.6798693
  32.0828512  -4.6881701  34.5548625  31.7456787  -4.1398927  35.0024610
  25.1303992   5.4098514  44.2853587  24.5391925   6.0508012  44.2556602
  25.8925015   5.8336131  44.2584887  25.1552252   5.5674353  44.2768735
  25.5264615  -3.4299488  44.9521605  25.9866096  -3.3560559  45.6896729
  25.5720721  -2.6318234  44.6021426  25.6015170  -3.3005341  45.0094361
  27.1747964  -2.7632793  49.5193632  26.7833529  -3.4099446  49.9549410
  27.3433827  -2.1721358  50.1387887  27.1418875  -2.7718525  49.6756338
  41.2494413   5.2404284  45.2830866  41.3077537   5.6890933  46.0290842
  40.6160881   5.6503097  44.8460946  41.1645708   5.3678018  45.3283414
  34.8893508  10.8607826  41.7185612  34.6913197  11.3498640  41.0241823
  34.2681219  11.0649067  42.2969745  34.7681072  10.9624364  41.7008835
  28.9501486   2.6292723  36.0595856  29.6943531   3.0166999  36.2978806
  29.0962183   1.7850148  36.2236344  29.0812071   2.5623195  36.1189826
  31.9379362  -1.7981804  41.9589775  31.4639317  -2.3240042  42.4695086
  32.3097498  -2.3452331  41.3904637  31.9229251  -1.9565808  41.9504923
  22.3152392   0.1989703  47.3273321  23.1778005   0.0985412  47.2410651
  21.9844175  -0.3815588  46.7658893  22.3937589   0.0981329  47.2318727
  38.2016093   3.2620572  43.3696556  37.9614316   2.4226987  43.3738982
  38.6808100   3.3420738  44.0937329  38.2368276   3.1501971  43.4771358
  33.8662862  -0.9045250  35.0215529  33.3385881  -0.8216506  34.3321238
  34.3258570  -0.1627378  35.0180174  33.8564712  -0.7824587  34.9190224
  40.2021280   0.0422029  41.3225815  39.9631050   0.0017863  40.4846600
  40.3655181   0.8893181  41.4491536  40.1911583   0.1614114  41.2179297
  36.8067310   4.4271978  47.2530860  37.5301509   3.9744504  47.0741880
  36.5417272   4.7076644  46.4703188  36.8748583   4.4022947  47.1109576
  25.6754178  -0.9767848  43.9883739  25.0507249  -0.9649456  43.3809692
  25.3399773  -0.5007673  44.6374980  25.5339670  -0.9049331  43.9940308
  25.8595927  -2.6342730  30.0456424  25.5108731  -1.9823005  30.5087974
  25.3792373  -2.6485617  29.3180296  25.7366171  -2.5399676  30.0067516
  22.3879854   7.0832612  45.4287504  21.8579778   6.3925051  45.4782478
  22.6604947   7.0742797  44.6000212  22.3504576   6.9799743  45.3134920
  33.4199944   7.6658314  34.1525186  34.1434143   8.1316427  34.0089760
  32.9800535   7.7331924  33.4022783  33.4615637   7.7442151  34.0209968
  32.5886099   4.5255856  45.4025875  31.9743093   3.9813907  45.6974511
  33.1053384   4.0120093  44.9231691  32.5741762   4.3692265  45.3750104
  31.8282397   5.5960126  43.1370174  31.4010005   4.9709845  42.7035609
  31.8207341   5.3135048  43.9629181  31.7641538   5.4612907  43.1950001
  24.9444924   0.6325299  46.2058608  25.1038410  -0.1231376  46.6110330
  24.7637817   1.1816239  46.8599346  24.9410283   0.6019113  46.3621314
  30.1568106  -3.5271119  43.3512708  30.1810594  -4.0611007  42.6625488
  30.4079580  -4.0353810  44.0138298  30.1978025  -3.6810215  43.3477353
  17.6675696   3.7560376  42.7855852  17.5619145   3.7107220  41.9207936
  16.9175916   4.1014156  43.0670137  17.5411299   3.8001284  42.6993182
  26.4369429  -4.8000301  42.7318452  26.4767800  -4.2991094  43.4453160
  25.6119093  -4.7089907  42.4624375  26.3208954  -4.7118485  42.7968990
  28.6199041   4.7660439  50.8338747  27.7694672   4.9032153  50.9696392
  28.7827169   4.0324217  51.2786448  28.5182905   4.6774540  50.9194346
  27.8583792   1.7160209  45.0292351  27.0275722   1.8834027  44.8227599
  27.8035309   1.3396160  45.8141237  27.7273207   1.6849940  45.1140879
  26.2319836  -0.0084200  35.5582469  26.3722797   0.4888265  36.2611110
  26.7302369  -0.7097905  35.6996683  26.3260917  -0.0382221  35.6834048
  26.2620058   0.8582911  32.8875046  26.8965138   1.4543337  32.8224508
  26.3445669   0.5586369  33.7020916  26.3676609   0.9023820  32.9978132
  39.2402624   3.3898389  45.7561410  39.8320464   4.0295640  45.7879608
  39.6761618   2.6921426  46.0453477  39.3921055   3.3816739  45.8042243
  27.8399041  -3.2103113  32.8620488  28.1614882  -3.6900031  32.2079750
  28.1025985  -2.4003467  32.6711299  27.9265066  -3.1613215  32.7375980
  31.0696014   7.8115761  46.3819304  30.5621105   8.3651608  46.8259934
  30.7722660   7.8724051  45.5638078  30.9500899   7.9022072  46.3267761
  33.2358196  -3.8230919  45.2243967  33.6613268  -4.2758393  44.6127493
  32.6215189  -4.3770848  45.5008754  33.2086841  -3.9716943  45.1748992
  22.7673046   3.0550752  36.1564592  23.2765275   3.6515260  36.5375897
  23.2407318   2.7876726  35.4741011  22.9116422   3.1036568  36.1119115
  33.6803794  11.7279019  34.3123247  32.9633104  11.5539881  33.8470485
  34.3310532  11.4931591  33.7798733  33.6705645  11.6674811  34.1652465
  36.2651765   0.6043607  38.0564552  35.5942955   1.1473310  37.9277618
  36.9591516   1.0738463  37.8146247  36.2680633   0.7541879  38.0020080
  30.3138499  12.7440319  43.2876311  30.0904153  11.9859149  43.6560337
  29.8248342  12.7738341  42.5656750  30.2081948  12.6362544  43.2353052
  36.4279893  -2.9400509  40.9654926  36.7807503  -3.3670786  41.6400724
  35.5694694  -3.0249665  41.0956002  36.3529337  -3.0155768  41.0849936
  25.1263578  -0.3092989  39.0237772  24.4075567   0.1071143  39.2910636
  25.4975940   0.2561250  38.4729410  25.0755510  -0.1643708  38.9820579
  34.4263159   0.3234860  44.9139768  34.4061086   0.1418155  45.7674547
  34.4742359   1.1946878  44.8899352  34.4297800   0.4251398  45.0363063
  32.3709488   6.9122052  50.8388244  32.3305343   6.2671729  50.2533400
  33.1832807   6.8558669  51.1513657  32.4852642   6.8081019  50.7985194
  28.9616956  12.9640778  40.7413395  28.5477355  12.3014908  40.3517237
  29.6464330  13.1118636  40.2209090  29.0015328  12.8881436  40.6069893
  32.3282250  12.1230863  41.4937012  31.9298533  12.2333133  40.7257832
  31.7133470  12.3312929  42.0763572  32.1781139  12.1704431  41.4668311
  30.9010152  -1.2694989  34.3611152  30.3074991  -0.9477993  33.8095719
  30.9385430  -2.1153894  34.1532258  30.8184541  -1.3470661  34.2493923
  33.7767969  -1.3115485  37.7912902  33.5481662  -1.2882783  36.9491260
  34.0366045  -2.1358018  37.9107912  33.7814157  -1.4299405  37.6838100
  28.0587197   0.5418988  47.3938002  27.5466100  -0.0659829  47.7523033
  27.8866693   1.2575581  47.8611978  27.9576834   0.5582288  47.5154226
  22.9052912  -1.0143436  50.0440364  22.7355502  -0.3542062  49.4988571
  22.4618862  -0.8036875  50.7652853  22.8152245  -0.8857454  50.0701993
  26.8312731  -2.7738938  39.0867098  27.3070098  -2.4121859  38.4517279
  26.3301331  -2.1182471  39.3667240  26.8278090  -2.6244750  39.0343839
  40.0624093   6.6982830  34.8780103  40.4457699   7.4474186  35.1078200
  39.2668206   6.9448649  34.6192092  40.0017875   6.8452523  34.8737676
  31.9356268  -1.5356767  49.8340258  32.4927698  -1.7642958  49.2018723
  31.6117333  -0.7751101  49.5575470  31.9702678  -1.4572930  49.6996755
  29.6539385   1.5510886  50.7992265  30.4050712   1.8662563  51.1131819
  29.8461961   1.3490057  49.9726187  29.7930799   1.5678268  50.7235661
  28.8739384  -0.6297739  32.4540482  29.2538349  -0.6118110  31.6691596
  28.1331980  -0.1843750  32.3331329  28.8208222  -0.5615964  32.3204050
  36.5024675  -2.3215548  38.0416060  36.5018901  -2.4766891  38.9000337
  36.2980855  -1.4752560  37.9857446  36.4724453  -2.2194927  38.1604000
  18.5641946   1.1024237  42.4574877  18.3863707   0.6500846  43.1829792
  18.2760968   1.9050398  42.6413354  18.4954899   1.1546795  42.5918380
  34.2265527   2.3581954  41.6952267  34.7219192   1.6404949  41.6556287
  33.4165303   2.0552752  41.5806754  34.1809420   2.2079601  41.6725993
  29.6724138   6.2079768  33.8449272  28.8635461   5.8846441  33.7982581
  30.1799047   5.5012990  33.7777520  29.6273805   6.0561084  33.8279566
  20.3014416   3.6351961  39.5696636  19.4359935   3.6237651  39.4579407
  20.4013232   3.4482184  40.4167775  20.1888583   3.6058022  39.6785580
  36.2917346   5.1085642  44.3829396  36.7172417   4.5860064  43.8299821
  35.9274266   5.7066479  43.8618019  36.3003948   5.1195869  44.2238406
  25.9271426  13.4049859  43.1426741  26.2417985  14.2186248  43.1504523
  26.3364839  13.0200078  43.8108901  26.0339524  13.4678562  43.2430833
  32.8795945   8.8219906  40.7130553  33.3507123   9.5360169  40.8820539
  33.2156124   8.2218656  41.2490423  32.9991060   8.8391370  40.8162929
  34.9672930  10.4321219  52.8922625  35.0769895   9.6429780  53.2479373
  35.2963826  10.3427156  52.0896963  35.0325336  10.3027072  52.8265016
  33.5169892   8.6137840  47.4758246  32.9690838   7.9895724  47.2078311
  33.9782920   8.8032112  46.7602325  33.5037101   8.5496890  47.3308677
  28.8658555  -4.4036211  35.1368113  29.6874249  -4.2337898  34.8949808
  28.4028206  -4.2488950  34.4134411  28.9189717  -4.3554478  34.9939757
  27.4553887  -6.4093448  45.9166542  27.9998300  -6.7502321  46.5070884
  27.5090823  -5.5507987  46.0587826  27.5443006  -6.3338189  46.0248415
  23.2684446   7.3522968  42.7905350  23.8729303   7.3118802  42.1619171
  23.0611758   8.1994120  42.8209406  23.3273343   7.4710970  42.7021466
  33.0828218   9.6188913  44.0067587  33.9026592   9.4751879  44.2683882
  32.8022296  10.2435112  44.5484025  33.1624961   9.6899265  44.1255527
  18.5035728   6.3357585  42.6604273  18.4060006   5.5253857  42.9694330
  19.2864598   6.3149379  42.2750541  18.6051865   6.2124675  42.6491136
  49.5541868  17.2753765  36.9710463  49.5235873  18.1298401  37.1428733
  50.1523217  16.9749057  37.5296607  49.6379026  17.3570261  37.0785266
  42.7541553  16.3629416  41.7263394  41.8979449  16.5237914  41.7772511
  42.8009207  15.4921480  41.7468455  42.6340665  16.2580217  41.7369460
  46.0635270  22.6315941  51.3323850  46.7702037  22.1367972  51.4610784
  46.2523205  23.0725023  50.6026508  46.1963175  22.6234292  51.2432896
  45.5993374  18.4221460  44.3695046  46.1449334  19.1006546  44.4289015
  45.5410250  18.2808920  43.5096627  45.6709288  18.5013461  44.2507106
  47.3758443  19.8506067  35.2428773  47.2597969  20.6013753  35.6720911
  48.1714329  19.5930020  35.4924860  47.4763032  19.9240914  35.3432865
  34.2122581  14.1016543  42.2800039  33.5927612  13.5109190  42.1110054
  34.1106444  14.6927978  41.6464363  34.1060256  14.1020625  42.1605029
  41.3090476  15.8416085  36.6132502  42.0070641  16.0204212  37.1053966
  41.6242809  15.3186424  35.9902892  41.4585814  15.7909857  36.5934513
  39.4817340  11.2108481  40.6953777  39.1520670  11.6619625  40.0257476
  38.8062342  11.1324645  41.2426784  39.3327776  11.2659616  40.6777000
  46.6893748   7.1994004  38.9403388  46.3747189   7.8897483  39.3723810
  46.1720689   7.1438786  38.2388888  46.5658218   7.2928893  38.9000337
  46.0306182  17.1998505  35.0540798  45.5017653  17.4158139  35.7138105
  46.5531201  17.8934644  34.9741768  46.0294635  17.3341642  35.1396398
  51.4854234  22.7744810  40.4273843  50.6551938  22.9855453  40.5907259
  51.4363487  21.9481864  40.1516126  51.3560970  22.6834416  40.4111208
  42.3783004  17.3427374  32.3317187  42.6179007  17.5505358  31.5192530
  42.6998845  16.5384883  32.4406131  42.4620162  17.2541475  32.2277740
  37.6873294   9.2720770  36.1776725  38.4419262   9.6399087  35.9393775
  37.5100829   9.6460324  36.9455904  37.7727772   9.3818958  36.2561613
  50.9808193  15.4215210  44.2224264  50.1436614  15.4917397  44.4571859
  50.9496424  15.4239705  43.3498566  50.8526475  15.4325437  44.1283812
  36.0430359  11.6791089  32.8754838  35.8605932  11.8962969  32.0495831
  36.9055972  11.7930101  32.9313452  36.1434948  11.7280987  32.7609325
  41.7230078   8.6817499  35.9103862  42.4516238   8.5033454  35.4642018
  41.8124971   9.5235579  36.1211040  41.8436740   8.7801378  35.8757379
  45.7038379  19.6170887  39.8136156  46.4595894  20.0502401  39.8525064
  45.8100703  18.9675656  40.3870792  45.8308549  19.5848371  39.9034181
  48.7418550  23.4444164  40.5638559  48.3053782  23.4480906  41.3197530
  48.4081465  24.1249663  40.1318136  48.6281170  23.5456620  40.6119391
  48.6616033  10.4857992  42.8067986  49.3041941  10.5556096  43.3929902
  48.9139053   9.8187215  42.3047528  48.7938165  10.3984340  42.8195266
  35.5892386  14.9565261  31.3877311  34.8750563  14.6703441  31.7999743
  36.0736354  15.2961887  32.0283698  35.5551749  14.9646911  31.5432946
  36.4333245  13.6958555  47.4192560  35.7405042  13.2255535  47.6653292
  37.0493572  13.4696860  47.9934268  36.4217775  13.5925687  47.5401713
  51.8762896  20.1625084  39.4558196  52.5379330  19.6015752  39.3554104
  51.2354308  19.6677115  39.7810887  51.8791763  20.0061493  39.4890536
  48.1627727  21.1790466  39.1970185  48.3983316  21.3235665  38.3697035
  48.3117290  21.9432874  39.5901698  48.2193530  21.3129521  39.1333788
  49.9918183  20.0192132  37.0339788  50.3226400  20.5519772  36.4279883
  50.5651271  20.0731020  37.6901739  50.1251862  20.1061701  37.0417570
  42.5318753  21.1423044  53.4268353  41.7391734  21.4566556  53.6120972
  42.6467681  21.3574512  52.5889137  42.4314164  21.2206880  53.3306687
  45.2050072  17.8657035  37.7163368  45.2996927  18.6046329  38.1702994
  44.5808916  17.4374510  38.1497933  45.1259103  17.9118355  37.8471516
  43.4602546  21.0443248  48.3653649  44.0341408  20.4070492  48.5202213
  43.3817350  21.0447330  47.4963307  43.5335781  20.9508359  48.2600060
  45.4573094  19.7105775  30.9500321  45.3753256  19.7807962  31.8155307
  46.0952814  20.2735519  30.7584061  45.5392931  19.8044746  31.0490270
  43.8967315  11.5794963  40.5178939  43.1923642  11.0904149  40.6762859
  43.9452289  11.5917438  39.6467384  43.7997367  11.5084611  40.4118279
  41.4574266  15.5027624  45.7632120  41.0688698  15.0781842  45.1084311
  40.7928964  15.7509774  46.2709147  41.3021193  15.4766345  45.7419988
  51.0997535  15.2602629  38.5379950  50.8434100  14.4482571  38.3477833
  51.9426849  15.2680196  38.3110137  51.1863560  15.1414627  38.4764767
  45.2800627   9.2002253  43.2756104  45.6611139   8.5180424  43.6623978
  44.4763912   8.9111855  43.0931769  45.2177089   9.0569302  43.3060160
  48.7822694  22.4152225  48.3738503  48.5461332  21.5840290  48.2550563
  49.4265923  22.3637832  48.9593347  48.8417365  22.2849913  48.4424396
  39.2392468  11.7056451  53.1418713  38.9245909  12.4756014  52.8788275
  38.9182400  11.1426707  52.5570940  39.1451387  11.7366720  53.0160063
  49.8059115  22.1996674  44.4366797  49.5004932  22.9324731  44.7980113
  49.0865330  21.7934603  44.1559583  49.6546457  22.2478407  44.4479934
  55.5060907  18.8389675  43.7635141  55.4385407  18.8585634  42.8937728
  55.4916569  19.6820002  43.9890812  55.4939663  18.9663409  43.6687618
  36.7924365  10.0946973  38.7564909  35.9246790  10.1669572  38.8222518
  37.0799569  10.8969052  38.9452884  36.7064113  10.2241120  38.7939676
  45.9157253  10.2424832  47.0876231  46.6610845  10.0534643  46.6739656
  45.4994558  10.7683070  46.5290087  45.9642228  10.2926978  46.9440804
  53.2919524  17.6134061  42.0381736  53.8427446  16.9802130  42.2778828
  53.2763640  18.1449454  42.7297240  53.3704721  17.5983009  42.1760594
  46.9947930  15.8530394  41.1486332  46.6512696  15.1320730  41.4993582
  47.0940973  15.6444246  40.3064690  46.9589973  15.7154598  41.0758012
  38.8708973  14.3053702  51.8803927  38.0608749  14.6111482  51.7693770
  39.3483660  15.0259285  51.9956512  38.8212452  14.4568304  51.8810999
  45.5138896  13.7721979  43.0245875  44.6749996  13.7983258  42.7884138
  45.5843263  14.4192715  43.6051222  45.4007289  13.8718105  43.0754992
  43.9608174  10.6707356  37.7573491  44.6634527  10.4715105  37.2793449
  43.6952363   9.8983299  38.0642334  44.0254806  10.5270322  37.7318932
  49.3896420  18.9789966  40.3107117  49.3030394  19.1345392  41.1641895
  48.9346900  19.6228041  39.9366522  49.3099676  19.0965721  40.3814223
  32.2919911  14.3486445  37.0467066  32.3936048  15.1512606  37.3748042
  33.0875798  14.1473781  36.7490147  32.4247817  14.4372343  37.0502422
  38.7236730  11.9342641  46.8104371  38.5319927  11.9497776  47.6603795
  39.5735326  12.1306316  46.7871026  38.8212452  11.9656993  46.9327666
  33.1083643  14.4633623  44.7888188  32.9669135  13.6117564  44.9132696
  33.3924207  14.5062283  43.9650394  33.1291489  14.3433373  44.6855812
  43.2622236  16.3000713  38.9332676  43.0156950  16.2196464  39.7669465
  43.5907359  15.5154181  38.7395204  43.2743479  16.1726978  39.0280199
  45.4948370  19.3080448  48.9741839  45.4896408  18.4360264  48.9784266
  46.2009364  19.5068617  48.5011295  45.5993374  19.2084322  48.9048874
  48.6523657  22.3662326  33.4835957  48.2730466  21.5799464  33.4765246
  47.9889903  22.9149183  33.3407601  48.4982132  22.3307150  33.4616753
  41.6340957  12.1298151  47.0176195  42.0913572  12.8622125  47.1448987
  41.7097286  11.7064616  47.7763450  41.7131927  12.1755389  47.1477271
  33.8773949  12.3763970  48.1065638  33.3416138  11.7644329  48.4226406
  33.9391713  12.9512106  48.7599305  33.8069581  12.3710898  48.2501065
  46.1068283   5.3088026  40.8870037  46.2251851   5.7664489  40.1537340
  45.9330459   4.5033287  40.6006255  46.0987454   5.2581798  40.7370971
  39.5123335  14.1200255  43.8618019  38.7219410  13.9391715  44.1835354
  39.9083958  13.3427207  43.8448313  39.4540212  13.9787716  43.9070567
  43.9989226  22.9488029  29.3024732  44.7662211  23.0088154  28.8930584
  43.5520535  22.3768470  28.8181051  44.0462653  22.8724605  29.1702442
  42.0261166  16.5960514  48.3441517  41.9620307  17.4570470  48.2161654
  42.1658353  16.2792507  47.5437069  42.0376636  16.6760680  48.2069730
  46.4058957  23.3705235  53.9005968  47.2193822  23.0990384  54.0611101
  46.2453923  23.0712775  53.0966164  46.5028905  23.2860162  53.8051374
  43.6831118  14.0538893  46.8401357  43.8973088  13.4149807  46.2864711
  43.0665018  14.4984716  46.4109218  43.6236448  14.0249036  46.6951788
  45.8470206  15.6627958  47.7784664  45.0346888  15.3553848  47.8597836
  46.3060141  15.1826958  48.3427376  45.7950591  15.5464450  47.8739258
  43.0745847   7.1638828  41.8288699  42.2039405   7.1377549  41.7822009
  43.3286188   6.9916020  41.0114545  42.9839407   7.1348972  41.7008836
  42.9423714  17.0688029  52.5613366  43.4123345  17.6930146  52.9481240
  42.9885594  16.4005005  53.1206581  43.0191590  17.0622710  52.7013437
  40.0994988   9.1745057  43.2862170  39.5833476   8.4825248  43.4113749
  39.5388916   9.8415834  43.2324768  39.9401501   9.1708314  43.2968236
  42.1687221   9.7138017  45.1155022  41.7818974   9.7387048  45.8968552
  41.6820158   9.1479695  44.6629539  42.0399730   9.6333768  45.1642926
  46.4180201  24.4311526  49.1728809  47.0559921  23.9371721  48.8391265
  45.7754292  24.3588926  48.5881036  46.4174427  24.3470534  49.0371164
  48.1437201  16.2800672  43.7394725  47.7164809  16.1927020  42.9842824
  47.5063254  16.3878447  44.3249569  47.9866808  16.2833332  43.7140166
  41.8344363   6.6005002  47.4065282  42.4637481   7.1365302  47.1286353
  42.0030226   6.5082361  48.2578848  41.9522157   6.6666365  47.4913810
  41.6358278  11.3876197  49.6791694  42.4631707  11.1161346  49.7350308
  41.6566124  12.1837039  50.0355512  41.7611128  11.4655951  49.7406877
  45.3268281   9.1340891  40.3750584  45.5317875   9.0663199  41.2207581
  44.9994705   9.9399712  40.3071761  45.3083529   9.2426831  40.4910239
  40.0244432  16.4621459  42.1159552  39.7207570  15.9077447  42.7169960
  39.3223853  16.6413669  41.6287586  39.8760642  16.4066241  42.1329258
  48.5801969   9.6872655  39.8553349  47.9676283  10.1743057  40.2407081
  48.6766144   9.0116146  40.3991001  48.5039867   9.6590964  39.9932208
  42.5821050  11.4435496  34.9550849  43.0364797  11.6146057  35.6798693
  43.0561096  10.8303607  34.5548625  42.7189370  11.3786381  35.0024610
  36.4997198  12.0885820  44.9521605  36.9598680  12.1624749  45.6896729
  36.5453305  12.8867074  44.6021426  36.5747754  12.2179967  45.0094361
  38.1480548  12.7552515  49.5193632  37.7566113  12.1085862  49.9549410
  38.3166411  13.3463950  50.1387887  38.1151458  12.7466783  49.6756338
  52.2226997  20.7589592  45.2830866  52.2810121  21.2076241  46.0290842
  51.5893465  21.1688405  44.8460946  52.1378292  20.8863326  45.3283414
  41.8413645   9.9428289  41.0927718  40.9949691  10.1151097  40.9669067
  41.8384778   9.1377633  41.4293546  41.7160795   9.8489318  41.1238844
  42.9111946  13.7203504  41.9589775  42.4371900  13.1945266  42.4695086
  43.2830082  13.1732977  41.3904637  42.8961835  13.5619500  41.9504923
  49.1748676  18.7805879  43.3696556  48.9346899  17.9412295  43.3738982
  49.6540684  18.8606046  44.0937329  49.2100860  18.6687279  43.4771358
  44.8395445  14.6140058  35.0215529  44.3118464  14.6968802  34.3321238
  45.2991154  15.3557930  35.0180174  44.8297296  14.7360721  34.9190224
  51.1753863  15.5607337  41.3225815  50.9363633  15.5203171  40.4846600
  51.3387765  16.4078489  41.4491536  51.1644167  15.6799422  41.2179297
  47.7799894  19.9457286  47.2530860  48.5034092  19.4929812  47.0741880
  47.5149856  20.2261952  46.4703188  47.8481167  19.9208254  47.1109576
  36.6486762  14.5417460  43.9883739  36.0239832  14.5535851  43.3809692
  36.3132357  15.0177635  44.6374980  36.5072254  14.6135977  43.9940308
  36.8328511  12.8842578  30.0456424  36.4841315  13.5362303  30.5087974
  36.3524956  12.8699691  29.3180296  36.7098755  12.9785632  30.0067516
  43.5618683  20.0441164  45.4025875  42.9475676  19.4999215  45.6974511
  44.0785968  19.5305401  44.9231691  43.5474345  19.8877573  45.3750104
  43.8597810   8.3171843  46.7609397  43.3638372   8.5135517  46.0700964
  44.6166872   8.7164511  46.5898199  43.8984635   8.4049577  46.6329534
  41.1300690  11.9914189  43.3512708  41.1543177  11.4574301  42.6625488
  41.3812164  11.4831498  44.0138298  41.1710609  11.8375093  43.3477353
  37.4102012  10.7185007  42.7318452  37.4500384  11.2194214  43.4453160
  36.5851677  10.8095401  42.4624375  37.2941538  10.8066823  42.7968990
  36.6400159  10.7254410  50.6648762  37.2652862  10.1816543  50.9378194
  36.1850639  10.2449327  50.0956552  36.6648419  10.5743891  50.6210356
  37.2352642  16.3768219  32.8875046  37.8697721  16.9728644  32.8224508
  37.3178253  16.0771677  33.7020916  37.3409193  16.4209128  32.9978132
  50.2135208  18.9083697  45.7561410  50.8053048  19.5480947  45.7879608
  50.6494202  18.2106734  46.0453477  50.3653639  18.9002047  45.8042243
  38.8131625  12.3082195  32.8620488  39.1347466  11.8285277  32.2079750
  39.0758568  13.1181841  32.6711299  38.8997650  12.3572093  32.7375980
  44.2090780  11.6954389  45.2243967  44.6345851  11.2426915  44.6127493
  43.5947773  11.1414459  45.5008754  44.1819425  11.5468365  45.1748992
  42.6485002   8.1669489  38.6334544  42.0053320   8.0167135  39.2019682
  42.3084409   7.9211834  37.8683648  42.5030080   8.1081611  38.6037559
  47.2384349  16.1228915  38.0564552  46.5675539  16.6658618  37.9277618
  47.9324099  16.5923771  37.8146247  47.2413216  16.2727187  38.0020080
  47.4012476  12.5784799  40.9654926  47.7540086  12.1514522  41.6400724
  46.5427278  12.4935643  41.0956002  47.3261921  12.5029540  41.0849936
  45.3995742  15.8420168  44.9139768  45.3793669  15.6603463  45.7674547
  45.4474943  16.7132186  44.8899352  45.4030383  15.9436706  45.0363063
  43.3442072  22.4307360  50.8388244  43.3037927  21.7857037  50.2533400
  44.1565390  22.3743977  51.1513657  43.4585226  22.3266326  50.7985194
  41.8742736  14.2490319  34.3611152  41.2807575  14.5707315  33.8095719
  41.9118013  13.4031414  34.1532258  41.7917125  14.1714647  34.2493923
  48.8336536   7.7003211  41.8939238  48.3267401   6.9932350  41.8260416
  49.6303970   7.3696400  42.0240315  48.8763776   7.5476362  41.9038233
  44.7500552  14.2069823  37.7912902  44.5214245  14.2302525  36.9491260
  45.0098629  13.3827290  37.9107912  44.7546740  14.0885903  37.6838100
  33.8785495  14.5041871  50.0440364  33.7088086  15.1643246  49.4988571
  33.4351445  14.7148433  50.7652853  33.7884829  14.6327854  50.0701993
  37.8045315  12.7446369  39.0867098  38.2802681  13.1063449  38.4517279
  37.3033914  13.4002837  39.3667240  37.8010674  12.8940558  39.0343839
  51.0356676  22.2168138  34.8780103  51.4190282  22.9659494  35.1078200
  50.2400790  22.4633957  34.6192092  50.9750459  22.3637831  34.8737676
  42.9088851  13.9828541  49.8340258  43.4660281  13.7542350  49.2018723
  42.5849916  14.7434206  49.5575470  42.9435261  14.0612378  49.6996755
  40.6271968  17.0696194  50.7992265  41.3783295  17.3847871  51.1131819
  40.8194545  16.8675365  49.9726187  40.7663383  17.0863576  50.7235661
  39.8471968  14.8887569  32.4540482  40.2270933  14.9067198  31.6691596
  39.1064564  15.3341558  32.3331329  39.7940806  14.9569344  32.3204050
  47.4757258  13.1969760  38.0416060  47.4751485  13.0418417  38.9000337
  47.2713439  14.0432747  37.9857446  47.4457036  13.2990381  38.1604000
  29.5374529  16.6209545  42.4574877  29.3596291  16.1686154  43.1829792
  29.2493552  17.4235706  42.6413354  29.4687483  16.6732103  42.5918380
  45.1998111  17.8767262  41.6952267  45.6951776  17.1590257  41.6556287
  44.3897886  17.5738060  41.5806754  45.1542004  17.7264908  41.6725993
  47.2649929  20.6270950  44.3829396  47.6905001  20.1045372  43.8299821
  46.9006849  21.2251787  43.8618019  47.2736532  20.6381177  44.2238406
  45.9405513  25.9506527  52.8922625  46.0502479  25.1615088  53.2479373
  46.2696410  25.8612464  52.0896963  46.0057919  25.8212380  52.8265016
  40.7698024   9.1132685  47.6688648  40.9025929   8.3163678  47.9969624
  41.1543177   9.6399088  48.2486924  40.8454353   9.0732601  47.8032151
  44.4902475  24.1323148  47.4758246  43.9423421  23.5081032  47.2078311
  44.9515504  24.3217420  46.7602325  44.4769685  24.0682198  47.3308677
  43.8430379   6.0363011  44.2669741  43.0376343   5.9260740  44.5837580
  43.7137114   6.1375466  43.4099607  43.7050512   6.0346681  44.1877782
  47.2996340  12.2008503  44.8609438  46.7159328  12.7017709  44.4487006
  47.6200634  11.6938059  44.2273762  47.2609515  12.2000338  44.7067945
  39.8391139  11.1149097  35.1368113  40.6606833  11.2847410  34.8949808
  39.3760790  11.2696358  34.4134411  39.8922301  11.1630830  34.9939757
  38.4286471   9.1091860  45.9166542  38.9730884   8.7682986  46.5070884
  38.4823406   9.9677321  46.0587826  38.5175590   9.1847119  46.0248415
  29.4768312  21.8542893  42.6604273  29.3792590  21.0439165  42.9694330
  30.2597181  21.8334687  42.2750541  29.5784448  21.7309983  42.6491136
  60.5274452  32.7939072  36.9710463  60.4968456  33.6483709  37.1428733
  61.1255801  32.4934365  37.5296607  60.6111610  32.8755569  37.0785266
  53.7274137  31.8814724  41.7263394  52.8712032  32.0423222  41.7772511
  53.7741790  31.0106787  41.7468455  53.6073248  31.7765525  41.7369460
  57.0367853  38.1501249  51.3323850  57.7434621  37.6553280  51.4610784
  57.2255789  38.5910331  50.6026508  57.1695759  38.1419600  51.2432896
  56.5725958  33.9406767  44.3695046  57.1181918  34.6191854  44.4289015
  56.5142834  33.7994228  43.5096627  56.6441872  34.0198769  44.2507106
  49.6900033  41.4295834  39.7563398  49.7910396  40.6196188  40.0660526
  49.0941778  41.3352780  39.1263077  49.6172571  41.2960862  39.7089636
  52.2823060  31.3601393  36.6132502  52.9803225  31.5389520  37.1053966
  52.5975392  30.8371732  35.9902892  52.4318397  31.3095165  36.5934513
  57.6626331  22.7179312  38.9403388  57.3479772  23.4082791  39.3723810
  57.1453273  22.6624094  38.2388888  57.5390802  22.8114201  38.9000337
  54.1760148  41.5728786  49.2237925  54.2643493  41.3854926  50.0716136
  54.6049860  40.9266215  48.8242772  54.2522250  41.4491793  49.2909677
  61.9540776  30.9400518  44.2224264  61.1169197  31.0102705  44.4571859
  61.9229007  30.9425013  43.3498566  61.8259059  30.9510745  44.1283812
  52.6962661  24.2002807  35.9103862  53.4248822  24.0218762  35.4642018
  52.7857554  25.0420887  36.1211040  52.8169324  24.2986686  35.8757379
  54.2880207  41.0037805  51.8881709  55.0720623  41.1168652  52.2537451
  54.0876801  40.1778942  52.0840395  54.3746232  40.8984524  51.9716095
  59.6348616  26.0043300  42.8067986  60.2774525  26.0741404  43.3929902
  59.8871637  25.3372523  42.3047528  59.7670748  25.9169648  42.8195266
  47.4065829  29.2143863  47.4192560  46.7137625  28.7440843  47.6653292
  48.0226156  28.9882168  47.9934268  47.3950359  29.1110995  47.5401713
  62.8495479  35.6810392  39.4558196  63.5111914  35.1201060  39.3554104
  62.2086891  35.1862423  39.7810887  62.8524347  35.5246801  39.4890536
  53.5051337  36.6608352  53.4268353  52.7124318  36.9751864  53.6120972
  53.6200264  36.8759820  52.5889137  53.4046748  36.7392188  53.3306687
  54.4335130  36.5628555  48.3653649  55.0073992  35.9255800  48.5202213
  54.3549934  36.5632638  47.4963307  54.5068365  36.4693667  48.2600060
  54.8699899  27.0980271  40.5178939  54.1656225  26.6089457  40.6762859
  54.9184873  27.1102746  39.6467384  54.7729950  27.0269919  40.4118279
  52.4306849  31.0212932  45.7632120  52.0421282  30.5967150  45.1084311
  51.7661548  31.2695082  46.2709147  52.2753777  30.9951653  45.7419988
  62.0730118  30.7787937  38.5379950  61.8166683  29.9667878  38.3477833
  62.9159432  30.7865504  38.3110137  62.1596144  30.6599934  38.4764767
  56.2533211  24.7187561  43.2756104  56.6343723  24.0365732  43.6623978
  55.4496495  24.4297163  43.0931769  56.1909673  24.5754610  43.3060160
  59.7555278  37.9337533  48.3738503  59.5193915  37.1025598  48.2550563
  60.3998507  37.8823140  48.9593347  59.8149948  37.8035221  48.4424396
  50.2125051  27.2241759  53.1418713  49.8978492  27.9941322  52.8788275
  49.8914984  26.6612015  52.5570940  50.1183970  27.2552028  53.0160063
  60.7791698  37.7181982  44.4366797  60.4737515  38.4510039  44.7980113
  60.0597914  37.3119911  44.1559583  60.6279041  37.7663715  44.4479934
  66.4793490  34.3574982  43.7635141  66.4117991  34.3770942  42.8937728
  66.4649153  35.2005310  43.9890812  66.4672247  34.4848717  43.6687618
  45.5480924  39.5463340  37.7969469  44.7219042  39.7925077  37.6703748
  45.6092916  39.4675421  38.6631527  45.4355091  39.5708289  37.9058413
  56.8889837  25.7610140  47.0876231  57.6343429  25.5719951  46.6739656
  56.4727142  26.2868378  46.5290087  56.9374811  25.8112286  46.9440804
  64.2652108  33.1319369  42.0381736  64.8160029  32.4987438  42.2778828
  64.2496223  33.6634761  42.7297240  64.3437304  33.1168317  42.1760594
  57.9680514  31.3715702  41.1486332  57.6245280  30.6506038  41.4993582
  58.0673557  31.1629554  40.3064690  57.9322557  31.2339906  41.0758012
  49.8441557  29.8239010  51.8803927  49.0341332  30.1296790  51.7693770
  50.3216243  30.5444593  51.9956512  49.7945035  29.9753612  51.8810999
  56.4871479  29.2907287  43.0245875  55.6482580  29.3168566  42.7884138
  56.5575847  29.9378023  43.6051222  56.3739873  29.3903413  43.0754992
  54.9340758  26.1892664  37.7573491  55.6367111  25.9900412  37.2793449
  54.6684946  25.4168606  38.0642334  54.9987390  26.0455630  37.7318932
  60.3629003  34.4975274  40.3107117  60.2762978  34.6530700  41.1641895
  59.9079483  35.1413349  39.9366522  60.2832260  34.6151029  40.3814223
  49.6969314  27.4527949  46.8104371  49.5052511  27.4683084  47.6603795
  50.5467910  27.6491624  46.7871026  49.7945036  27.4842301  46.9327666
  58.1302868  38.5269380  42.7219457  57.9917227  39.2250426  43.2268200
  57.3502866  38.3718037  42.3655639  57.9946095  38.6069547  42.7445732
  56.4680953  34.8265756  48.9741839  56.4628992  33.9545572  48.9784266
  57.1741947  35.0253925  48.5011295  56.5725957  34.7269630  48.9048874
  52.6073541  27.6483459  47.0176195  53.0646155  28.3807433  47.1448987
  52.6829870  27.2249924  47.7763450  52.6864511  27.6940697  47.1477271
  57.0800867  20.8273334  40.8870037  57.1984435  21.2849797  40.1537340
  56.9063043  20.0218595  40.6006255  57.0720038  20.7767106  40.7370971
  52.9993749  32.1145822  48.3441517  52.9352890  32.9755778  48.2161654
  53.1390937  31.7977815  47.5437069  53.0109219  32.1945988  48.2069730
  51.6812843  34.8077961  42.4857720  51.2575092  35.0082460  41.7496739
  51.5057698  33.9606809  42.5982020  51.5923724  34.7126743  42.3931410
  57.3791540  38.8890543  53.9005968  58.1926405  38.6175692  54.0611101
  57.2186506  38.5898083  53.0966164  57.4761489  38.8045469  53.8051374
  54.6563702  29.5724201  46.8401357  54.8705672  28.9335115  46.2864711
  54.0397601  30.0170024  46.4109218  54.5969031  29.5434344  46.6951788
  56.8202790  31.1813266  47.7784664  56.0079472  30.8739156  47.8597836
  57.2792725  30.7012266  48.3427376  56.7683175  31.0649758  47.8739258
  54.0478431  22.6824136  41.8288699  53.1771989  22.6562857  41.7822009
  54.3018772  22.5101328  41.0114545  53.9571991  22.6534280  41.7008836
  53.9156298  32.5873337  52.5613366  54.3855929  33.2115454  52.9481240
  53.9618178  31.9190313  53.1206581  53.9924173  32.5808017  52.7013437
  51.0727571  24.6930365  43.2862170  50.5566060  24.0010556  43.4113749
  50.5121500  25.3601142  43.2324768  50.9134084  24.6893622  43.2968236
  53.1419805  25.2323325  45.1155022  52.7551558  25.2572356  45.8968552
  52.6552742  24.6665003  44.6629539  53.0132314  25.1519076  45.1642926
  57.3912784  39.9496834  49.1728809  58.0292505  39.4557029  48.8391265
  56.7486876  39.8774234  48.5881036  57.3907011  39.8655842  49.0371164
  59.1169784  31.7985980  43.7394725  58.6897392  31.7112328  42.9842824
  58.4795837  31.9063755  44.3249569  58.9599391  31.8018639  43.7140166
  52.8076946  22.1190310  47.4065282  53.4370064  22.6550610  47.1286353
  52.9762809  22.0267669  48.2578848  52.9254741  22.1851672  47.4913810
  52.6090861  26.9061505  49.6791694  53.4364291  26.6346654  49.7350308
  52.6298707  27.7022347  50.0355512  52.7343711  26.9841259  49.7406877
  57.4467041  40.6416642  45.8134166  58.2359419  40.2905707  45.9336247
  57.6210638  41.4553030  45.5510799  57.5887322  40.7102499  45.7922034
  56.3000865  24.6526199  40.3750584  56.5050458  24.5848507  41.2207581
  55.9727289  25.4585020  40.3071761  56.2816113  24.7612139  40.4910239
  59.5534553  25.2057963  39.8553349  58.9408866  25.6928365  40.2407081
  59.6498727  24.5301454  40.3991001  59.4772450  25.1776272  39.9932208
  53.5553634  26.9620804  34.9550849  54.0097380  27.1331364  35.6798693
  54.0293679  26.3488915  34.5548625  53.6921954  26.8971689  35.0024610
  49.1213131  28.2737823  49.5193632  48.7298697  27.6271170  49.9549410
  49.2898994  28.8649258  50.1387887  49.0884042  28.2652090  49.6756338
  63.1959581  36.2774900  45.2830866  63.2542704  36.7261548  46.0290842
  62.5626048  36.6873712  44.8460946  63.1110876  36.4048634  45.3283414
  52.8146229  25.4613597  41.0927718  51.9682274  25.6336405  40.9669067
  52.8117361  24.6562941  41.4293546  52.6893379  25.3674626  41.1238844
  53.8844529  29.2388812  41.9589775  53.4104484  28.7130574  42.4695086
  54.2562665  28.6918285  41.3904637  53.8694418  29.0804808  41.9504923
  60.1481260  34.2991187  43.3696556  59.9079483  33.4597603  43.3738982
  60.6273267  34.3791354  44.0937329  60.1833444  34.1872587  43.4771358
  55.8128029  30.1325366  35.0215529  55.2851048  30.2154110  34.3321238
  56.2723737  30.8743238  35.0180174  55.8029880  30.2546029  34.9190224
  62.1486447  31.0792645  41.3225815  61.9096217  31.0388479  40.4846600
  62.3120348  31.9263797  41.4491536  62.1376750  31.1984730  41.2179297
  58.7532477  35.4642594  47.2530860  59.4766676  35.0115120  47.0741880
  58.4882439  35.7447260  46.4703188  58.8213750  35.4393562  47.1109576
  54.5351267  35.5626472  45.4025875  53.9208260  35.0184522  45.6974511
  55.0518552  35.0490709  44.9231691  54.5206929  35.4062881  45.3750104
  53.7747564  36.6330742  43.1370174  53.3475172  36.0080461  42.7035609
  53.7672508  36.3505664  43.9629181  53.7106705  36.4983523  43.1950001
  54.8330394  23.8357151  46.7609397  54.3370955  24.0320825  46.0700964
  55.5899456  24.2349819  46.5898199  54.8717219  23.9234885  46.6329534
  52.1033273  27.5099497  43.3512708  52.1275761  26.9759609  42.6625488
  52.3544747  27.0016806  44.0138298  52.1443192  27.3560401  43.3477353
  47.6132742  26.2439718  50.6648762  48.2385446  25.7001850  50.9378194
  47.1583222  25.7634635  50.0956552  47.6381003  26.0929199  50.6210356
  55.1823363  27.2139697  45.2243967  55.6078435  26.7612223  44.6127493
  54.5680356  26.6599767  45.5008754  55.1552009  27.0653673  45.1748992
  53.6217586  23.6854797  38.6334544  52.9785904  23.5352443  39.2019682
  53.2816993  23.4397142  37.8683648  53.4762663  23.6266919  38.6037559
  58.3745060  28.0970107  40.9654926  58.7272670  27.6699830  41.6400724
  57.5159861  28.0120951  41.0956002  58.2994505  28.0214848  41.0849936
  56.3728326  31.3605476  44.9139768  56.3526253  31.1788771  45.7674547
  56.4207526  32.2317494  44.8899352  56.3762967  31.4622014  45.0363063
  54.3174656  37.9492668  50.8388244  54.2770510  37.3042345  50.2533400
  55.1297974  37.8929285  51.1513657  54.4317809  37.8451634  50.7985194
  59.8069120  23.2188519  41.8939238  59.2999985  22.5117658  41.8260416
  60.6036554  22.8881708  42.0240315  59.8496359  23.0661670  41.9038233
  55.7233136  29.7255131  37.7912902  55.4946829  29.7487833  36.9491260
  55.9831212  28.9012598  37.9107912  55.7279324  29.6071211  37.6838100
  50.0052364  31.5789604  47.3938002  49.4931267  30.9710787  47.7523033
  49.8331860  32.2946197  47.8611978  49.9042001  31.5952903  47.5154226
  53.8821435  29.5013849  49.8340258  54.4392865  29.2727658  49.2018723
  53.5582500  30.2619514  49.5575470  53.9167845  29.5797685  49.6996755
  51.6004552  32.5881502  50.7992265  52.3515879  32.9033179  51.1131819
  51.7927128  32.3860673  49.9726187  51.7395966  32.6048884  50.7235661
  50.8204552  30.4072877  32.4540482  51.2003516  30.4252506  31.6691596
  50.0797148  30.8526866  32.3331329  50.7673389  30.4754652  32.3204050
  58.4489842  28.7155068  38.0416060  58.4484068  28.5603725  38.9000337
  58.2446022  29.5618055  37.9857446  58.4189620  28.8175689  38.1604000
  58.2382513  36.1456258  44.3829396  58.6637585  35.6230679  43.8299821
  57.8739433  36.7437095  43.8618019  58.2469116  36.1566485  44.2238406
  56.9138097  41.4691835  52.8922625  57.0235062  40.6800396  53.2479373
  57.2428994  41.3797771  52.0896963  56.9790503  41.3397688  52.8265016
  51.7430607  24.6317993  47.6688648  51.8758513  23.8348986  47.9969624
  52.1275760  25.1584395  48.2486924  51.8186936  24.5917909  47.8032151
  55.4635059  39.6508456  47.4758246  54.9156005  39.0266340  47.2078311
  55.9248087  39.8402728  46.7602325  55.4502268  39.5867506  47.3308677
  54.8162963  21.5548319  44.2669741  54.0108926  21.4446048  44.5837580
  54.6869698  21.6560774  43.4099607  54.6783095  21.5531989  44.1877782
  58.2728923  27.7193811  44.8609438  57.6891912  28.2203017  44.4487006
  58.5933217  27.2123367  44.2273762  58.2342098  27.7185646  44.7067945
  49.4019054  24.6277168  45.9166542  49.9463467  24.2868294  46.5070884
  49.4555990  25.4862629  46.0587826  49.4908174  24.7032427  46.0248415
  71.5007035  48.3124380  36.9710463  71.4701040  49.1669017  37.1428733
  72.0988384  48.0119673  37.5296607  71.5844193  48.3940877  37.0785266
  68.0100437  53.6686557  51.3323850  68.7167204  53.1738588  51.4610784
  68.1988372  54.1095639  50.6026508  68.1428342  53.6604907  51.2432896
  64.5372820  57.3588119  32.9186173  64.2024188  58.0365040  32.4830395
  65.0499690  56.9693430  32.3303044  64.5638401  57.4012697  32.7672964
  69.3223610  50.8876682  35.2428773  69.2063136  51.6384369  35.6720911
  70.1179497  50.6300636  35.4924860  69.4228199  50.9611529  35.3432865
  68.6358915  38.2364620  38.9403388  68.3212356  38.9268099  39.3723810
  68.1185857  38.1809402  38.2388888  68.5123385  38.3299509  38.9000337
  65.1492731  57.0914094  49.2237925  65.2376077  56.9040234  50.0716136
  65.5782444  56.4451523  48.8242772  65.2254834  56.9677101  49.2909677
  72.9273360  46.4585826  44.2224264  72.0901781  46.5288013  44.4571859
  72.8961591  46.4610321  43.3498566  72.7991642  46.4696053  44.1283812
  59.3238089  48.6018862  49.9372633  59.4958593  48.4924756  50.7857914
  59.8607446  49.2473267  49.7003825  59.4283093  48.6810863  50.0277729
  65.2612790  56.5223113  51.8881709  66.0453207  56.6353960  52.2537451
  65.0609385  55.6964250  52.0840395  65.3478816  56.4169832  51.9716095
  70.6081200  41.5228608  42.8067986  71.2507108  41.5926712  43.3929902
  70.8604220  40.8557831  42.3047528  70.7403332  41.4354956  42.8195266
  58.3798412  44.7329171  47.4192560  57.6870209  44.2626151  47.6653292
  58.9958740  44.5067476  47.9934268  58.3682942  44.6296303  47.5401713
  65.4183184  58.4333215  45.5348164  64.6198430  58.1932715  45.7922033
  65.8669195  58.4847608  46.2815212  65.3657795  58.4055606  45.6833089
  73.8228063  51.1995700  39.4558196  74.4844497  50.6386368  39.3554104
  73.1819475  50.7047730  39.7810887  73.8256931  51.0432109  39.4890536
  57.1038971  48.6994575  48.5619406  57.8278944  48.6847606  49.0484300
  57.2055108  49.4089930  48.0641374  57.2257180  48.8019278  48.5598192
  64.4783921  52.1793660  53.4268353  63.6856901  52.4937171  53.6120972
  64.5932848  52.3945128  52.5889137  64.3779331  52.2577496  53.3306687
  65.4067713  52.0813863  48.3653649  65.9806575  51.4441108  48.5202213
  65.3282517  52.0817946  47.4963307  65.4800948  51.9878975  48.2600060
  63.4039433  46.5398240  45.7632120  63.0153866  46.1152458  45.1084311
  62.7394131  46.7880390  46.2709147  63.2486361  46.5136961  45.7419988
  73.0462702  46.2973245  38.5379950  72.7899267  45.4853186  38.3477833
  73.8892016  46.3050812  38.3110137  73.1328727  46.1785242  38.4764767
  67.2265794  40.2372869  43.2756104  67.6076306  39.5551040  43.6623978
  66.4229079  39.9482471  43.0931769  67.1642256  40.0939917  43.3060160
  70.7287861  53.4522841  48.3738503  70.4926499  52.6210906  48.2550563
  71.3731090  53.4008448  48.9593347  70.7882532  53.3220529  48.4424396
  61.1857635  42.7427067  53.1418713  60.8711076  43.5126630  52.8788275
  60.8647567  42.1797323  52.5570940  61.0916554  42.7737336  53.0160063
  71.7524282  53.2367290  44.4366797  71.4470099  53.9695347  44.7980113
  71.0330498  52.8305219  44.1559583  71.6011624  53.2849023  44.4479934
  77.4526074  49.8760290  43.7635141  77.3850574  49.8956250  42.8937728
  77.4381736  50.7190618  43.9890812  77.4404830  50.0034025  43.6687618
  67.8622421  41.2795448  47.0876231  68.6076013  41.0905258  46.6739656
  67.4459725  41.8053686  46.5290087  67.9107395  41.3297593  46.9440804
  75.2384691  48.6504677  42.0381736  75.7892613  48.0172746  42.2778828
  75.2228807  49.1820069  42.7297240  75.3169888  48.6353625  42.1760594
  60.8174140  45.3424318  51.8803927  60.0073916  45.6482098  51.7693770
  61.2948827  46.0629901  51.9956512  60.7677619  45.4938919  51.8810999
  67.4604063  44.8092595  43.0245875  66.6215164  44.8353874  42.7884138
  67.5308430  45.4563330  43.6051222  67.3472456  44.9088721  43.0754992
  71.3361587  50.0160582  40.3107117  71.2495561  50.1716008  41.1641895
  70.8812067  50.6598657  39.9366522  71.2564843  50.1336337  40.3814223
  60.6701898  42.9713257  46.8104371  60.4785095  42.9868392  47.6603795
  61.5200493  43.1676932  46.7871026  60.7677619  43.0027608  46.9327666
  67.4413537  50.3451064  48.9741839  67.4361575  49.4730880  48.9784266
  68.1474531  50.5439233  48.5011295  67.5458541  50.2454938  48.9048874
  61.1684430  50.0728047  48.3455659  61.3127806  50.6529256  47.7098769
  61.5160079  50.4504344  49.0505514  61.2411892  50.2148752  48.3554654
  70.5988825  53.4032942  33.4835957  70.2195633  52.6170080  33.4765246
  69.9355070  53.9519799  33.3407601  70.4447299  53.3677766  33.4616753
  63.5806125  43.1668767  47.0176195  64.0378739  43.8992741  47.1448987
  63.6562453  42.7435232  47.7763450  63.6597094  43.2126005  47.1477271
  55.8239116  43.4134586  48.1065638  55.2881305  42.8014944  48.4226406
  55.8856881  43.9882722  48.7599305  55.7534748  43.4081514  48.2501065
  68.0533450  36.3458642  40.8870037  68.1717019  36.8035105  40.1537340
  67.8795626  35.5403903  40.6006255  68.0452621  36.2952414  40.7370971
  65.9454393  53.9858645  29.3024732  66.7127378  54.0458770  28.8930584
  65.4985702  53.4139086  28.8181051  65.9927820  53.9095221  29.1702442
  63.9726333  47.6331130  48.3441517  63.9085474  48.4941086  48.2161654
  64.1123520  47.3163123  47.5437069  63.9841803  47.7131296  48.2069730
  68.8448923  55.6478433  33.8187642  68.9268761  56.4545419  33.4949093
  69.3298666  55.6674392  34.5428416  68.9286081  55.7699095  33.8774541
  62.1557120  61.8413782  44.9479178  62.6453050  61.1424571  44.7654842
  61.5841352  61.5437652  45.5355235  62.1441650  61.6940006  45.0080218
  68.3524124  54.4075851  53.9005968  69.1658989  54.1361000  54.0611101
  68.1919090  54.1083391  53.0966164  68.4494072  54.3230777  53.8051374
  65.6296286  45.0909508  46.8401357  65.8438255  44.4520423  46.2864711
  65.0130185  45.5355332  46.4109218  65.5701615  45.0619652  46.6951788
  67.7935374  46.6998574  47.7784664  66.9812055  46.3924464  47.8597836
  68.2525308  46.2197574  48.3427376  67.7415758  46.5835066  47.8739258
  65.0211014  38.2009444  41.8288699  64.1504572  38.1748165  41.7822009
  65.2751356  38.0286636  41.0114545  64.9304574  38.1719588  41.7008836
  64.8888881  48.1058645  52.5613366  65.3588512  48.7300762  52.9481240
  64.9350761  47.4375621  53.1206581  64.9656757  48.0993325  52.7013437
  62.0460155  40.2115673  43.2862170  61.5298643  39.5195864  43.4113749
  61.4854084  40.8786450  43.2324768  61.8866668  40.2078930  43.2968236
  64.1152388  40.7508633  45.1155022  63.7284141  40.7757664  45.8968552
  63.6285326  40.1850311  44.6629539  63.9864897  40.6704383  45.1642926
  68.3645368  55.4682142  49.1728809  69.0025088  54.9742337  48.8391265
  67.7219459  55.3959542  48.5881036  68.3639594  55.3841150  49.0371164
  70.0902368  47.3171288  43.7394725  69.6629976  47.2297636  42.9842824
  69.4528421  47.4249063  44.3249569  69.9331975  47.3203947  43.7140166
  63.7809530  37.6375618  47.4065282  64.4102648  38.1735918  47.1286353
  63.9495393  37.5452977  48.2578848  63.8987324  37.7036980  47.4913810
  63.5823445  42.4246813  49.6791694  64.4096874  42.1531962  49.7350308
  63.6031291  43.2207655  50.0355512  63.7076295  42.5026567  49.7406877
  68.4199624  56.1601950  45.8134166  69.2092002  55.8091015  45.9336247
  68.5943222  56.9738338  45.5510799  68.5619906  56.2287807  45.7922034
  67.2733448  40.1711507  40.3750584  67.4783042  40.1033814  41.2207581
  66.9459872  40.9770328  40.3071761  67.2548696  40.2797447  40.4910239
  70.5267136  40.7243271  39.8553349  69.9141450  41.2113673  40.2407081
  70.6231311  40.0486762  40.3991001  70.4505034  40.6961580  39.9932208
  60.0945715  43.7923131  49.5193632  59.7031280  43.1456478  49.9549410
  60.2631578  44.3834566  50.1387887  60.0616625  43.7837398  49.6756338
  74.1692164  51.7960208  45.2830866  74.2275288  52.2446856  46.0290842
  73.5358632  52.2059020  44.8460946  74.0843459  51.9233942  45.3283414
  63.7878813  40.9798905  41.0927718  62.9414858  41.1521713  40.9669067
  63.7849945  40.1748249  41.4293546  63.6625963  40.8859934  41.1238844
  73.1219031  46.5977953  41.3225815  72.8828801  46.5573787  40.4846600
  73.2852932  47.4449105  41.4491536  73.1109334  46.7170038  41.2179297
  69.7265061  50.9827902  47.2530860  70.4499260  50.5300428  47.0741880
  69.4615023  51.2632567  46.4703188  69.7946334  50.9578870  47.1109576
  65.8062977  39.3542459  46.7609397  65.3103539  39.5506133  46.0700964
  66.5632040  39.7535127  46.5898199  65.8449802  39.4420193  46.6329534
  63.0765857  43.0284805  43.3512708  63.1008344  42.4944917  42.6625488
  63.3277331  42.5202113  44.0138298  63.1175776  42.8745709  43.3477353
  61.5396792  51.3216363  50.8338747  60.6892423  51.4588077  50.9696392
  61.7024920  50.5880141  51.2786448  61.4380656  51.2330464  50.9194346
  58.5865326  41.7625026  50.6648762  59.2118029  41.2187158  50.9378194
  58.1315806  41.2819943  50.0956552  58.6113587  41.6114507  50.6210356
  72.1600375  49.9454313  45.7561410  72.7518215  50.5851563  45.7879608
  72.5959369  49.2477349  46.0453477  72.3118806  49.9372663  45.8042243
  66.1555947  42.7325005  45.2243967  66.5811018  42.2797531  44.6127493
  65.5412940  42.1785075  45.5008754  66.1284592  42.5838981  45.1748992
  66.6001545  58.2834943  34.3123247  65.8830855  58.1095805  33.8470485
  67.2508282  58.0487515  33.7798733  66.5903395  58.2230735  34.1652465
  63.2336250  59.2996243  43.2876311  63.0101904  58.5415073  43.6560337
  62.7446093  59.3294264  42.5656750  63.1279699  59.1918468  43.2353052
  69.3477644  43.6155415  40.9654926  69.7005254  43.1885138  41.6400724
  68.4892445  43.5306258  41.0956002  69.2727088  43.5400156  41.0849936
  65.2907239  53.4677975  50.8388244  65.2503094  52.8227652  50.2533400
  66.1030557  53.4114593  51.1513657  65.4050393  53.3636942  50.7985194
  70.7801704  38.7373827  41.8939238  70.2732568  38.0302966  41.8260416
  71.5769137  38.4067016  42.0240315  70.8228943  38.5846978  41.9038233
  60.9784948  47.0974912  47.3938002  60.4663851  46.4896095  47.7523033
  60.8064444  47.8131505  47.8611978  60.8774585  47.1138211  47.5154226
  55.8250663  45.5412487  50.0440364  55.6553253  46.2013862  49.4988571
  55.3816612  45.7519049  50.7652853  55.7349996  45.6698469  50.0701993
  64.8554018  45.0199157  49.8340258  65.4125448  44.7912966  49.2018723
  64.5315083  45.7804822  49.5575470  64.8900428  45.0982993  49.6996755
  62.5737136  48.1066810  50.7992265  63.3248462  48.4218487  51.1131819
  62.7659712  47.9045981  49.9726187  62.7128550  48.1234192  50.7235661
  67.8870681  56.9877143  52.8922625  67.9967646  56.1985704  53.2479373
  68.2161577  56.8983079  52.0896963  67.9523086  56.8582996  52.8265016
  62.7163191  40.1503300  47.6688648  62.8491097  39.3534294  47.9969624
  63.1008344  40.6769703  48.2486924  62.7919520  40.1103217  47.8032151
  66.4367642  55.1693764  47.4758246  65.8888588  54.5451648  47.2078311
  66.8980671  55.3588036  46.7602325  66.4234852  55.1052814  47.3308677
  65.7895546  37.0733627  44.2669741  64.9841510  36.9631356  44.5837580
  65.6602282  37.1746082  43.4099607  65.6515679  37.0717297  44.1877782
  69.2461507  43.2379118  44.8609438  68.6624495  43.7388325  44.4487006
  69.5665801  42.7308675  44.2273762  69.2074682  43.2370953  44.7067945
  60.3751638  40.1462475  45.9166542  60.9196051  39.8053602  46.5070884
  60.4288573  41.0047937  46.0587826  60.4640757  40.2217735  46.0248415
  66.0025969  56.1744837  44.0067587  66.8224342  56.0307803  44.2683882
  65.7220046  56.7991036  44.5484025  66.0822712  56.2455189  44.1255527
  75.6739304  62.9185339  41.7263394  74.8177199  63.0793838  41.7772511
  75.7206958  62.0477403  41.7468455  75.5538415  62.8136141  41.7369460
  70.0580444  72.4548057  37.4900625  69.3063343  72.0763596  37.2616671
  70.5066455  72.4866491  36.7419436  70.0130110  72.4033664  37.3458128
  78.9833020  69.1871865  51.3323850  79.6899788  68.6923896  51.4610784
  79.1720956  69.6280947  50.6026508  79.1160926  69.1790215  51.2432896
  75.5105403  72.8773427  32.9186173  75.1756772  73.5550348  32.4830395
  76.0232274  72.4878738  32.3303044  75.5370985  72.9198005  32.7672964
  75.0509695  74.8287695  38.8597284  75.4349074  75.3974594  38.3202059
  74.9868836  74.1037206  38.3803100  75.0983122  74.8063159  38.7091147
  78.5191125  64.9777383  44.3695046  79.0647085  65.6562470  44.4289015
  78.4608001  64.8364844  43.5096627  78.5907039  65.0569385  44.2507106
  71.6365200  72.4666449  39.7563398  71.7375563  71.6566803  40.0660526
  71.0406945  72.3723396  39.1263077  71.5637738  72.3331478  39.7089636
  80.2956194  66.4061990  35.2428773  80.1795719  67.1569676  35.6720911
  81.0912080  66.1485944  35.4924860  80.3960783  66.4796837  35.3432865
  71.4765939  77.3844039  41.1578254  72.1203395  77.8257203  41.5474412
  71.8022195  76.5797465  41.0708513  71.6197768  77.3309233  41.2023731
  64.8330244  68.4886736  39.3815732  64.5980428  67.6554388  39.2748000
  64.9715885  68.7691402  38.5676933  64.8185906  68.4070239  39.2458087
  67.1320331  60.6572467  42.2800039  66.5125363  60.0665114  42.1110054
  67.0304195  61.2483902  41.6464363  67.0258007  60.6576549  42.1605029
  72.1786519  70.3956013  36.5298116  72.5002360  70.9361221  35.9259424
  72.8258616  69.8252785  36.6620406  72.3212574  70.3915189  36.4605151
  74.2288227  62.3972008  36.6132502  74.9268392  62.5760136  37.1053966
  74.5440560  61.8742348  35.9902892  74.3783564  62.3465780  36.5934513
  66.8589464  64.2024748  44.5243608  66.7348161  64.7887194  45.1593427
  67.5107749  63.7084944  44.8255883  66.9363114  64.2163553  44.6629538
  74.4176162  68.7842453  36.6012294  74.8569798  68.1759554  37.0467067
  74.2680825  68.4049827  35.8297759  74.4597628  68.6380925  36.5531461
  71.8847805  67.3786465  43.8031119  72.5296808  66.8858908  43.4842068
  72.1249583  67.5211252  44.6297198  72.0158391  67.3263907  43.8780653
  74.4233897  70.2241371  43.4538012  74.7057140  69.4292777  43.2324768
  75.1520057  70.7021959  43.4743073  74.5723461  70.1775968  43.4241027
  78.0185499  67.1369635  33.5543063  77.9336794  67.9930601  33.6992632
  78.5069882  66.8613959  34.2225222  78.0774396  67.2226956  33.6745145
  79.6091498  53.7549928  38.9403388  79.2944939  54.4453407  39.3723810
  79.0918440  53.6994710  38.2388888  79.4855969  53.8484816  38.9000337
  78.9503932  63.7554429  35.0540798  78.4215404  63.9714062  35.7138105
  79.4728952  64.4490567  34.9741768  78.9492385  63.8897566  35.1396398
  70.8403540  67.6517646  33.8548266  70.2560755  68.1567677  34.2614130
  70.4373635  67.4260033  33.1144858  70.6942844  67.6925894  33.8053292
  66.3947569  73.3672407  40.6571938  65.9115147  74.0922896  40.6331521
  67.2070887  73.6648537  40.7682096  66.4438316  73.5174760  40.6699217
  72.4661723  72.1604587  43.2621752  71.9488664  71.8012002  42.6583060
  73.1636114  71.6366762  43.2727818  72.4927304  72.0302275  43.1752011
  76.1225315  72.6099402  49.2237925  76.2108661  72.4225542  50.0716136
  76.5515027  71.9636831  48.8242772  76.1987417  72.4862409  49.2909677
  73.6895774  71.8930562  48.2055587  73.1266609  71.4803171  48.7295249
  74.4516798  71.8183467  48.6248731  73.7190223  71.8207962  48.3448588
  75.2980754  63.8983298  32.3317187  75.5376758  64.1061281  31.5192530
  75.6196595  63.0940806  32.4406131  75.3817912  63.8097399  32.2277740
  69.2491766  73.8828583  40.8092218  69.9512345  73.3680572  40.8664974
  69.1689249  74.2102734  41.6139093  69.3415526  73.8542809  40.9365010
  70.2970673  64.1204170  49.9372633  70.4691176  64.0110064  50.7857914
  70.8340030  64.7658575  49.7003825  70.4015676  64.1996171  50.0277729
  68.9628109  58.2347012  32.8754838  68.7803683  58.4518893  32.0495831
  69.8253722  58.3486025  32.9313452  69.0632699  58.2836910  32.7609325
  68.5742541  70.0734935  40.3177826  69.4131441  70.3057867  40.3651587
  68.6054311  69.2039246  40.2484861  68.7024259  69.9791881  40.3142470
  69.1995244  70.4935810  44.6191131  69.7393469  70.3506941  45.2894504
  68.5165191  70.8932561  44.9875157  69.1787398  70.5315481  44.7725553
  78.6236129  66.1726810  39.8136156  79.3793644  66.6058325  39.8525064
  78.7298454  65.5231580  40.3870792  78.7506300  66.1404294  39.9034181
  81.6616300  70.0000088  40.5638559  81.2251532  70.0036830  41.3197530
  81.3279216  70.6805587  40.1318136  81.5478920  70.1012544  40.6119391
  76.2345374  72.0408421  51.8881709  77.0185791  72.1539268  52.2537451
  76.0341969  71.2149558  52.0840395  76.3211399  71.9355140  51.9716095
  64.6032389  66.7136101  44.7725553  64.3370805  65.8975217  44.9316543
  64.6170954  66.7589256  43.9021068  64.5657112  66.5993005  44.6679035
  81.5813783  57.0413916  42.8067986  82.2239692  57.1112020  43.3929902
  81.8336804  56.3743138  42.3047528  81.7135915  56.9540264  42.8195266
  68.5090136  61.5121185  31.3877311  67.7948314  61.2259365  31.7999743
  68.9934105  61.8517811  32.0283698  68.4749500  61.5202835  31.5432946
  69.3530996  60.2514479  47.4192560  68.6602793  59.7811459  47.6653292
  69.9691323  60.0252783  47.9934268  69.3415526  60.1481611  47.5401713
  76.3915767  73.9518523  45.5348164  75.5931013  73.7118023  45.7922033
  76.8401779  74.0032916  46.2815212  76.3390379  73.9240914  45.6833089
  75.6837454  70.0151139  31.7639119  76.0988603  69.6836163  31.0723615
  74.8529384  69.7820041  31.6359256  75.6225463  69.9322395  31.6429966
  65.0125803  67.4994880  42.0537297  64.8301376  67.4741766  41.2009589
  65.7475472  67.9693818  42.0926206  65.0939867  67.5656242  41.9335215
  81.0825477  67.7346390  39.1970185  81.3181066  67.8791589  38.3697035
  81.2315041  68.4988798  39.5901698  81.1391281  67.8685444  39.1333788
  68.0771555  64.2179883  48.5619406  68.8011527  64.2032914  49.0484300
  68.1787691  64.9275238  48.0641374  68.1989764  64.3204586  48.5598192
  75.4516504  67.6978968  53.4268353  74.6589485  68.0122479  53.6120972
  75.5665431  67.9130436  52.5889137  75.3511915  67.7762804  53.3306687
  78.1247823  64.4212959  37.7163368  78.2194678  65.1602253  38.1702994
  77.5006667  63.9930434  38.1497933  78.0456853  64.4674279  37.8471516
  76.3800297  67.5999171  48.3653649  76.9539159  66.9626415  48.5202213
  76.3015101  67.6003254  47.4963307  76.4533532  67.5064283  48.2600060
  64.9796713  64.3788381  42.2036364  65.5570216  64.2424832  42.8428609
  64.2810775  63.9224165  42.4581948  64.9617735  64.2910647  42.3358653
  78.3770844  66.2661698  30.9500321  78.2951007  66.3363886  31.8155307
  79.0150565  66.8291442  30.7584061  78.4590682  66.3600670  31.0490270
  71.7364016  66.0322436  40.4174847  71.4783260  65.1994171  40.3906146
  71.7912498  66.2580049  39.5767347  71.7063793  65.9420208  40.2894984
  76.8165066  58.1350887  40.5178939  76.1121393  57.6460073  40.6762859
  76.8650040  58.1473362  39.6467384  76.7195117  58.0640535  40.4118279
  70.7098728  63.5860199  40.9039742  70.1348319  63.7452367  41.5403703
  70.3334404  62.9495608  40.4408192  70.5701540  63.5158012  40.9294300
  74.3772016  62.0583548  45.7632120  73.9886449  61.6337766  45.1084311
  73.7126715  62.3065698  46.2709147  74.2218944  62.0322269  45.7419988
  78.1998378  55.7558177  43.2756104  78.5808890  55.0736348  43.6623978
  77.3961662  55.4667779  43.0931769  78.1374840  55.6125225  43.3060160
  75.4810955  66.2882153  33.9608927  76.2951594  66.5797046  33.8491698
  75.4170096  65.6342015  33.3867220  75.5913694  66.2347347  33.8597764
  81.7020445  68.9708149  48.3738503  81.4659082  68.1396214  48.2550563
  82.3463674  68.9193756  48.9593347  81.7615116  68.8405837  48.4424396
  71.3518863  69.7603670  39.0881239  71.9892810  69.5215418  39.6333032
  71.7773935  69.9640829  38.3534400  71.5095029  69.7554680  39.0598396
  66.0431505  71.9992007  42.9715543  66.0835651  72.2706858  42.1435322
  66.6026029  72.5233915  43.3873331  66.1314851  72.1167762  42.9107431
  71.9921678  64.9805960  33.4256128  72.3766831  64.7613667  34.1772674
  71.7433298  65.8068905  33.5557205  72.0123751  65.0704106  33.5557205
  72.1590218  58.2612375  53.1418713  71.8443659  59.0311938  52.8788275
  71.8380151  57.6982631  52.5570940  72.0649137  58.2922644  53.0160063
  73.7340335  70.2376093  40.7675025  73.8079343  70.0751265  41.6216875
  74.5509841  70.4266282  40.5235507  73.8656694  70.2412835  40.8573051
  67.4946092  70.5833956  37.7969469  66.6684209  70.8295693  37.6703748
  67.5558083  70.5046037  38.6631527  67.3820259  70.6078905  37.9058413
  78.8355004  56.7980756  47.0876231  79.5808596  56.6090566  46.6739656
  78.4192309  57.3238994  46.5290087  78.8839978  56.8482901  46.9440804
  72.2744921  73.2010836  35.4988499  72.5643219  72.8099817  34.7747725
  73.0048401  73.3827541  35.9393774  72.4251805  73.1704650  35.4571306
  72.8639666  68.0028582  46.5841629  72.3651359  68.7144350  46.6626518
  73.6739890  68.3229248  46.5459792  72.9095773  68.1555430  46.5898198
  70.2150836  75.1778218  38.5648648  69.9951132  74.8875573  39.3575315
  69.9945358  74.5193173  38.0366561  70.1498430  75.0377927  38.6037557
  69.1267783  67.2651535  40.8304350  68.8381032  66.6389006  41.3650077
  69.9951131  67.2071822  40.8969031  69.2128035  67.1639079  40.9195305
  79.9145681  62.4086318  41.1486332  79.5710447  61.6876653  41.4993582
  80.0138724  62.2000169  40.3064690  79.8787724  62.2710521  41.0758012
  72.3818792  76.5507608  37.3479341  73.0342850  76.0184051  37.5770367
  71.6844401  76.1976261  37.7347215  72.3749510  76.4197131  37.4391509
  69.3300057  68.9046786  36.7546715  70.0846025  69.2859825  36.9682178
  68.7370669  69.3557930  37.2093412  69.3536770  69.0275613  36.8529594
  80.3758710  68.8712022  36.6910320  80.9416743  69.5305232  36.6068863
  79.7286614  69.2161720  37.1626722  80.3637467  69.0193964  36.7483077
  70.6498283  70.0755347  42.1286831  70.1279037  70.2155639  42.8138695
  71.0372304  69.3166012  42.3188948  70.6301984  69.9840871  42.2587907
  76.8465288  71.8150806  36.1147399  76.6051964  71.0818667  35.7074464
  77.0266621  72.3637663  35.4613733  76.8372912  71.7873198  35.9577622
  72.0764609  67.1059366  37.5268322  71.8807392  67.7134101  36.9328625
  72.2998955  66.4127310  37.0459996  72.0799250  67.0936892  37.3684402
  70.4743139  63.9914104  37.6449190  71.1965791  64.1555262  37.1852996
  69.9951132  64.7123769  37.5388530  70.5106870  64.1212334  37.5614804
  78.4336647  60.3277903  43.0245875  77.5947747  60.3539182  42.7884138
  78.5041014  60.9748638  43.6051222  78.3205040  60.4274029  43.0754992
  68.1250756  66.3972177  46.7503330  68.6371853  66.6756430  46.1012090
  67.8387098  67.1361471  47.1166143  68.1585619  66.5474530  46.7093208
  76.8805925  57.2263280  37.7573491  77.5832278  57.0271028  37.2793449
  76.6150114  56.4539222  38.0642334  76.9452557  57.0826246  37.7318932
  82.3094170  65.5345890  40.3107117  82.2228145  65.6901316  41.1641895
  81.8544650  66.1783965  39.9366522  82.2297427  65.6521645  40.3814223
  71.6434481  58.4898565  46.8104371  71.4517678  58.5053700  47.6603795
  72.4933077  58.6862239  46.7871026  71.7410203  58.5212916  46.9327666
  66.0281394  61.0189547  44.7888188  65.8866886  60.1673487  44.9132696
  66.3121957  61.0618207  43.9650394  66.0489240  60.8989297  44.6855812
  76.1819986  62.8556637  38.9332676  75.9354701  62.7752388  39.7669465
  76.5105110  62.0710105  38.7395204  76.1941230  62.7282902  39.0280199
  80.0768035  69.5639996  42.7219457  79.9382395  70.2621042  43.2268200
  79.2968033  69.4088653  42.3655639  79.9411262  69.6440163  42.7445732
  78.4146120  65.8636372  48.9741839  78.4094159  64.9916188  48.9784266
  79.1207114  66.0624541  48.5011295  78.5191124  65.7640246  48.9048874
  72.1417014  65.5913355  48.3455659  72.2860389  66.1714564  47.7098769
  72.4892662  65.9689652  49.0505514  72.2144475  65.7334059  48.3554654
  74.3136931  64.7903524  46.1280791  73.5660245  64.9834538  45.7229069
  74.4678456  63.9648743  45.8904912  74.2259359  64.6968635  46.0326197
  71.2144769  73.7816127  45.2116686  71.3634332  73.2219043  44.5590090
  71.9944771  73.8608129  45.5949205  71.3518862  73.7101693  45.1713635
  81.5721408  68.9218250  33.4835957  81.1928217  68.1355388  33.4765246
  80.9087654  69.4705107  33.3407601  81.4179883  68.8863074  33.4616753
  73.7398069  73.9530770  46.4901177  73.6641740  73.2839581  47.0451965
  73.6687929  74.6548558  47.0041843  73.7178676  73.9575677  46.6478025
  74.5538708  58.6854074  47.0176195  75.0111322  59.4178049  47.1448987
  74.6295037  58.2620540  47.7763450  74.6329678  58.7311313  47.1477271
  66.7971699  58.9319894  48.1065638  66.2613889  58.3200252  48.4226406
  66.8589464  59.5068030  48.7599305  66.7267332  58.9266822  48.2501065
  79.0266034  51.8643950  40.8870037  79.1449602  52.3220413  40.1537340
  78.8528210  51.0589211  40.6006255  79.0185205  51.8137722  40.7370971
  74.3968316  72.4731769  37.3224783  75.1618207  72.2041413  37.0007447
  74.2946406  71.9881779  38.0394846  74.4949812  72.3621334  37.3804610
  72.4321086  60.6756178  43.8618019  71.6417161  60.4947639  44.1835354
  72.8281709  59.8983131  43.8448313  72.3737962  60.5343639  43.9070567
  76.9186977  69.5043953  29.3024732  77.6859962  69.5644078  28.8930584
  76.4718286  68.9324394  28.8181051  76.9660404  69.4280528  29.1702442
  77.8164772  68.3098609  41.5877464  77.1409774  68.0783841  42.0890852
  77.8257148  67.7019792  40.9619570  77.7183277  68.1857534  41.5693617
  74.9458916  63.1516438  48.3441517  74.8818058  64.0126394  48.2161654
  75.0856104  62.8348431  47.5437069  74.9574386  63.2316604  48.2069730
  79.8181507  71.1663741  33.8187642  79.9001344  71.9730727  33.4949093
  80.3031249  71.1859700  34.5428416  79.9018665  71.2884403  33.8774541
  73.6278010  65.8448577  42.4857720  73.2040259  66.0453076  41.7496739
  73.4522865  64.9977425  42.5982020  73.5388891  65.7497358  42.3931410
  68.9160455  66.3400628  37.9185693  69.0725074  66.2747431  38.7741685
  69.2561048  67.1149181  37.7064373  68.9893690  66.4449826  38.0140287
  75.4539600  65.7158512  36.7879056  75.9955145  65.2128893  37.2517677
  75.7686159  65.6623707  35.9768541  75.5803997  65.6337933  36.7362868
  79.3256707  69.9261159  53.9005968  80.1391573  69.6546308  54.0611101
  79.1651674  69.6268699  53.0966164  79.4226656  69.8416085  53.8051374
  73.6226050  71.1075863  34.0719084  73.6918870  70.2490402  34.2112085
  74.4014505  71.3247744  33.7438109  73.7478900  71.0128727  34.0436241
  76.6028869  60.6094816  46.8401357  76.8170839  59.9705731  46.2864711
  75.9862768  61.0540640  46.4109218  76.5434198  60.5804960  46.6951788
  65.4894717  63.5235579  38.2346460  65.8693682  63.9420124  37.5706727
  64.9150081  64.1049034  38.5415303  65.4606042  63.6713438  38.1823201
  78.7667957  62.2183882  47.7784664  77.9544639  61.9109772  47.8597836
  79.2257892  61.7382882  48.3427376  78.7148342  62.1020374  47.8739258
  78.1773212  70.0963554  38.2261608  77.8187867  70.2678196  39.0025640
  77.6911923  70.5576759  37.6689607  78.0531909  70.1902525  38.2586877
  75.9943598  53.7194752  41.8288699  75.1237156  53.6933473  41.7822009
  76.2483939  53.5471944  41.0114545  75.9037158  53.6904896  41.7008836
  72.9661577  65.7762719  30.7661842  73.2554102  66.5527601  31.0405417
  73.0533376  65.2651450  31.4676342  73.0215834  65.8154637  30.9104340
  75.8621465  63.6243953  52.5613366  76.3321096  64.2486069  52.9481240
  75.9083345  62.9560929  53.1206581  75.9389341  63.6178633  52.7013437
  73.0192738  55.7300980  43.2862170  72.5031227  55.0381172  43.4113749
  72.4586667  56.3971758  43.2324768  72.8599252  55.7264238  43.2968236
  75.0884972  56.2693941  45.1155022  74.7016725  56.2942972  45.8968552
  74.6017909  55.7035619  44.6629539  74.9597481  56.1889691  45.1642926
  79.3377951  70.9867450  49.1728809  79.9757672  70.4927645  48.8391265
  78.6952043  70.9144850  48.5881036  79.3372178  70.9026458  49.0371164
  81.0634951  62.8356595  43.7394725  80.6362559  62.7482944  42.9842824
  80.4261004  62.9434371  44.3249569  80.9064559  62.8389255  43.7140166
  74.7542114  53.1560926  47.4065282  75.3835231  53.6921226  47.1286353
  74.9227976  53.0638285  48.2578848  74.8719908  53.2222288  47.4913810
  74.5556028  57.9432121  49.6791694  75.3829458  57.6717270  49.7350308
  74.5763874  58.7392962  50.0355512  74.6808878  58.0211875  49.7406877
  79.3932208  71.6787258  45.8134166  80.1824586  71.3276323  45.9336247
  79.5675806  72.4923646  45.5510799  79.5352489  71.7473115  45.7922034
  69.1325518  65.0895984  42.8661954  68.2913525  64.9899858  43.0740848
  69.3415526  65.8591464  43.2176275  69.0390211  65.1888027  42.9489269
  66.6101085  62.7115520  40.6946705  66.2157783  62.7858532  39.9196815
  66.0541202  63.0973467  41.2455067  66.4703898  62.7797295  40.6614365
  78.2466032  55.6896814  40.3750584  78.4515625  55.6219122  41.2207581
  77.9192456  56.4955636  40.3071761  78.2281280  55.7982755  40.4910239
  72.9442183  63.0177383  42.1159552  72.6405321  62.4633371  42.7169960
  72.2421604  63.1969593  41.6287586  72.7958393  62.9622165  42.1329258
  72.0008280  60.3277903  36.6804254  72.2768015  59.6096815  36.2681821
  72.6006950  60.9262822  36.4725360  72.1301545  60.3098273  36.5885015
  71.0060534  70.2327103  46.8231650  70.8980889  70.2429166  47.6893708
  71.2156316  71.0581884  46.6336604  71.0210645  70.3568178  46.9235741
  81.4999720  56.2428579  39.8553349  80.8874033  56.7298981  40.2407081
  81.5963895  55.5672070  40.3991001  81.4237617  56.2146887  39.9932208
  75.5018801  57.9991420  34.9550849  75.9562547  58.1701980  35.6798693
  75.9758846  57.3859531  34.5548625  75.6387121  57.9342305  35.0024610
  69.0234326  67.4839746  44.2853587  68.4322259  68.1249244  44.2556602
  69.7855350  67.9077363  44.2584887  69.0482587  67.6415584  44.2768735
  69.4194949  58.6441744  44.9521605  69.8796430  58.7180673  45.6896729
  69.4651056  59.4422998  44.6021426  69.4945504  58.7735891  45.0094361
  71.0678299  59.3108438  49.5193632  70.6763864  58.6641786  49.9549410
  71.2364161  59.9019874  50.1387887  71.0349209  59.3022706  49.6756338
  72.8431821  64.7033954  36.0595856  73.5873866  65.0908231  36.2978806
  72.9892517  63.8591380  36.2236344  72.9742406  64.6364427  36.1189826
  74.7611396  56.4984213  41.0927718  73.9147441  56.6707021  40.9669067
  74.7582529  55.6933557  41.4293546  74.6358546  56.4045242  41.1238844
  75.8309697  60.2759428  41.9589775  75.3569651  59.7501190  42.4695086
  76.2027832  59.7288900  41.3904637  75.8159586  60.1175424  41.9504923
  66.2082727  62.2730934  47.3273321  67.0708340  62.1726643  47.2410651
  65.8774510  61.6925644  46.7658893  66.2867923  62.1722561  47.2318727
  77.7593196  61.1695982  35.0215529  77.2316215  61.2524726  34.3321238
  78.2188904  61.9113854  35.0180174  77.7495047  61.2916645  34.9190224
  80.6997644  66.5013210  47.2530860  81.4231843  66.0485736  47.0741880
  80.4347607  66.7817875  46.4703188  80.7678918  66.4764178  47.1109576
  69.5684513  61.0973383  43.9883739  68.9437583  61.1091775  43.3809692
  69.2330108  61.5733558  44.6374980  69.4270005  61.1691900  43.9940308
  69.7526261  59.4398502  30.0456424  69.4039066  60.0918227  30.5087974
  69.2722707  59.4255615  29.3180296  69.6296505  59.5341555  30.0067516
  66.2810188  69.1573843  45.4287504  65.7510113  68.4666282  45.4782478
  66.5535282  69.1484029  44.6000212  66.2434911  69.0540975  45.3134920
  77.3130279  69.7399546  34.1525186  78.0364478  70.2057659  34.0089760
  76.8730870  69.8073155  33.4022783  77.3545971  69.8183382  34.0209968
  76.4816434  66.5997088  45.4025875  75.8673427  66.0555138  45.6974511
  76.9983719  66.0861324  44.9231691  76.4672096  66.4433497  45.3750104
  75.7212731  67.6701358  43.1370174  75.2940339  67.0451077  42.7035609
  75.7137675  67.3876280  43.9629181  75.6571872  67.5354139  43.1950001
  68.8375258  62.7066531  46.2058608  68.9968745  61.9509855  46.6110330
  68.6568152  63.2557471  46.8599346  68.8340617  62.6760345  46.3621314
  76.7795561  54.8727767  46.7609397  76.2836122  55.0691441  46.0700964
  77.5364623  55.2720435  46.5898199  76.8182386  54.9605500  46.6329534
  74.0498441  58.5470113  43.3512708  74.0740928  58.0130225  42.6625488
  74.3009914  58.0387421  44.0138298  74.0908359  58.3931016  43.3477353
  61.5606030  65.8301608  42.7855852  61.4549480  65.7848452  41.9207936
  60.8106250  66.1755388  43.0670137  61.4341633  65.8742516  42.6993182
  72.5129376  66.8401671  50.8338747  71.6625006  66.9773385  50.9696392
  72.6757503  66.1065449  51.2786448  72.4113239  66.7515772  50.9194346
  71.7514126  63.7901441  45.0292351  70.9206056  63.9575259  44.8227599
  71.6965643  63.4137391  45.8141237  71.6203541  63.7591172  45.1140879
  69.5597910  57.2810334  50.6648762  70.1850613  56.7372466  50.9378194
  69.1048389  56.8005251  50.0956552  69.5846170  57.1299815  50.6210356
  70.1250170  62.0657032  35.5582469  70.2653131  62.5629496  36.2611110
  70.6232703  61.3643327  35.6996683  70.2191251  62.0359011  35.6834048
  70.1550392  62.9324143  32.8875046  70.7895472  63.5284568  32.8224508
  70.2376003  62.6327601  33.7020916  70.2606943  62.9765051  32.9978132
  71.7329375  58.8638119  32.8620488  72.0545216  58.3841201  32.2079750
  71.9956319  59.6737765  32.6711299  71.8195401  58.9128017  32.7375980
  74.9626348  69.8856993  46.3819304  74.4551439  70.4392840  46.8259934
  74.6652994  69.9465283  45.5638078  74.8431233  69.9763304  46.3267761
  77.1288530  58.2510313  45.2243967  77.5543602  57.7982839  44.6127493
  76.5145523  57.6970383  45.5008754  77.1017176  58.1024289  45.1748992
  66.6603380  65.1291984  36.1564592  67.1695610  65.7256491  36.5375897
  67.1337653  64.8617958  35.4741011  66.8046756  65.1777799  36.1119115
  77.5734128  73.8020251  34.3123247  76.8563438  73.6281113  33.8470485
  78.2240866  73.5672823  33.7798733  77.5635979  73.7416043  34.1652465
  75.5682753  54.7225412  38.6334544  74.9251071  54.5723059  39.2019682
  75.2282160  54.4767758  37.8683648  75.4227830  54.6637535  38.6037559
  80.1582100  62.6784839  38.0564552  79.4873290  63.2214541  37.9277618
  80.8521850  63.1479695  37.8146247  80.1610967  62.8283110  38.0020080
  74.2068833  74.8181551  43.2876311  73.9834488  74.0600380  43.6560337
  73.7178677  74.8479572  42.5656750  74.1012282  74.7103776  43.2353052
  80.3210227  59.1340723  40.9654926  80.6737837  58.7070446  41.6400724
  79.4625029  59.0491566  41.0956002  80.2459672  59.0585463  41.0849936
  69.0193912  61.7648243  39.0237772  68.3005901  62.1812375  39.2910636
  69.3906274  62.3302481  38.4729410  68.9685844  61.9097524  38.9820579
  78.3193493  62.3976091  44.9139768  78.2991420  62.2159387  45.7674547
  78.3672694  63.2688110  44.8899352  78.3228134  62.4992630  45.0363063
  76.2639823  68.9863283  50.8388244  76.2235678  68.3412960  50.2533400
  77.0763141  68.9299901  51.1513657  76.3782976  68.8822250  50.7985194
  72.8547290  75.0382009  40.7413395  72.4407689  74.3756140  40.3517237
  73.5394665  75.1859868  40.2209090  72.8945662  74.9622667  40.6069893
  76.2212584  74.1972095  41.4937012  75.8228868  74.3074365  40.7257832
  75.6063804  74.4054161  42.0763572  76.0711474  74.2445663  41.4668311
  74.7940486  60.8046242  34.3611152  74.2005326  61.1263239  33.8095719
  74.8315764  59.9587338  34.1532258  74.7114876  60.7270571  34.2493923
  81.7534287  54.2559135  41.8939238  81.2465152  53.5488274  41.8260416
  82.5501721  53.9252323  42.0240315  81.7961526  54.1032286  41.9038233
  77.6698303  60.7625747  37.7912902  77.4411996  60.7858448  36.9491260
  77.9296379  59.9383214  37.9107912  77.6744491  60.6441827  37.6838100
  71.9517531  62.6160220  47.3938002  71.4396435  62.0081403  47.7523033
  71.7797028  63.3316812  47.8611978  71.8507168  62.6323519  47.5154226
  66.7983246  61.0597795  50.0440364  66.6285836  61.7199170  49.4988571
  66.3549196  61.2704356  50.7652853  66.7082580  61.1883777  50.0701993
  75.8286602  60.5384465  49.8340258  76.3858032  60.3098274  49.2018723
  75.5047667  61.2990130  49.5575470  75.8633012  60.6168301  49.6996755
  63.6985311  63.9644661  45.3028854  63.1512030  63.2945306  45.4209722
  64.4877689  63.5974509  45.3672321  63.7337494  63.8109647  45.3297554
  73.5469719  63.6252118  50.7992265  74.2981046  63.9403795  51.1131819
  73.7392296  63.4231289  49.9726187  73.6861133  63.6419500  50.7235661
  72.7669719  61.4443493  32.4540482  73.1468684  61.4623122  31.6691596
  72.0262315  61.8897482  32.3331329  72.7138556  61.5125268  32.3204050
  80.3955009  59.7525684  38.0416060  80.3949236  59.5974341  38.9000337
  80.1911189  60.5988671  37.9857446  80.3654787  59.8546305  38.1604000
  62.4572280  63.1765469  42.4574877  62.2794041  62.7242078  43.1829792
  62.1691302  63.9791630  42.6413354  62.3885233  63.2288026  42.5918380
  78.1195861  64.4323186  41.6952267  78.6149527  63.7146181  41.6556287
  77.3095637  64.1293984  41.5806754  78.0739755  64.2820832  41.6725993
  73.5654473  68.2820999  33.8449272  72.7565796  67.9587673  33.7982581
  74.0729382  67.5754221  33.7777520  73.5204140  68.1302316  33.8279566
  64.1944750  65.7093192  39.5696636  63.3290270  65.6978883  39.4579407
  64.2943566  65.5223415  40.4167775  64.0818917  65.6799254  39.6785580
  80.1847680  67.1826873  44.3829396  80.6102752  66.6601295  43.8299821
  79.8204600  67.7807711  43.8618019  80.1934283  67.1937101  44.2238406
  69.8201760  75.4791091  43.1426741  70.1348319  76.2927479  43.1504523
  70.2295173  75.0941310  43.8108901  69.9269858  75.5419793  43.2430833
  76.7726280  70.8961138  40.7130553  77.2437458  71.6101400  40.8820539
  77.1086458  70.2959888  41.2490423  76.8921395  70.9132602  40.8162929
  78.8603264  72.5062451  52.8922625  78.9700230  71.7171012  53.2479373
  79.1894161  72.4168387  52.0896963  78.9255670  72.3768304  52.8265016
  73.6895775  55.6688608  47.6688648  73.8223680  54.8719602  47.9969624
  74.0740927  56.1955011  48.2486924  73.7652103  55.6288525  47.8032151
  77.4100226  70.6879072  47.4758246  76.8621172  70.0636956  47.2078311
  77.8713255  70.8773344  46.7602325  77.3967435  70.6238122  47.3308677
  76.7628130  52.5918934  44.2669741  75.9574093  52.4816664  44.5837580
  76.6334865  52.6931390  43.4099607  76.6248263  52.5902605  44.1877782
  80.2194090  58.7564426  44.8609438  79.6357079  59.2573633  44.4487006
  80.5398384  58.2493983  44.2273762  80.1807266  58.7556261  44.7067945
  71.3484221  55.6647783  45.9166542  71.8928634  55.3238910  46.5070884
  71.4021157  56.5233245  46.0587826  71.4373341  55.7403043  46.0248415
  67.1614780  69.4264199  42.7905350  67.7659637  69.3860034  42.1619171
  66.9542093  70.2735351  42.8209406  67.2203677  69.5452202  42.7021466
  76.9758552  71.6930145  44.0067587  77.7956926  71.5493111  44.2683882
  76.6952630  72.3176343  44.5484025  77.0555296  71.7640497  44.1255527
  62.3966062  68.4098817  42.6604273  62.2990340  67.5995088  42.9694330
  63.1794932  68.3890610  42.2750541  62.4982199  68.2865907  42.6491136
  36.8333517   2.8370265  24.4240672  36.0816416   2.4585803  24.1956717
  37.2819528   2.8688698  23.6759483  36.7883184   2.7855872  24.2798174
  42.2858477   3.2595634  19.8526219  41.9509845   3.9372556  19.4170442
  42.7985347   2.8700945  19.2643091  42.3124058   3.3020212  19.7013011
  41.8262768   5.2109903  25.7937331  42.2102147   5.7796801  25.2542106
  41.7621909   4.4859413  25.3143147  41.8736195   5.1885366  25.6431194
  38.4118273   2.8488657  26.6903445  38.5128636   2.0389011  27.0000573
  37.8160018   2.7545603  26.0603123  38.3390812   2.7153685  26.6429683
  38.2519013   7.7666246  28.0918301  38.8956468   8.2079410  28.4814459
  38.5775268   6.9619672  28.0048560  38.3950841   7.7131441  28.1363778
  31.6083317  -1.1291057  26.3155778  31.3733502  -1.9623404  26.2088047
  31.7468958  -0.8486391  25.5016979  31.5938980  -1.2107553  26.1798133
  38.9539592   0.7778221  23.4638163  39.2755433   1.3183428  22.8599471
  39.6011689   0.2074992  23.5960452  39.0965647   0.7737396  23.3945198
  41.1929236  -0.8335339  23.5352341  41.6322871  -1.4418239  23.9807114
  41.0433899  -1.2127966  22.7637806  41.2350701  -0.9796868  23.4871508
  38.6600879  -2.2391327  30.7371166  39.3049881  -2.7318884  30.4182115
  38.9002656  -2.0966541  31.5637245  38.7911464  -2.2913885  30.8120699
  41.1986970   0.6063578  30.3878059  41.4810213  -0.1885016  30.1664815
  41.9273130   1.0844166  30.4083120  41.3476534   0.5598175  30.3581074
  37.6156613  -1.9660147  20.7888313  37.0313829  -1.4610116  21.1954177
  37.2126708  -2.1917760  20.0484905  37.4695917  -1.9251899  20.7393338
  33.1700642   3.7494614  27.5911985  32.6868220   4.4745104  27.5671568
  33.9823960   4.0470744  27.7022142  33.2191390   3.8996968  27.6039264
  39.2414796   2.5426795  30.1961799  38.7241738   2.1834210  29.5923107
  39.9389187   2.0188969  30.2067865  39.2680377   2.4124483  30.1092058
  42.8978388   2.9921609  36.1577972  42.9861734   2.8047749  37.0056182
  43.3268100   2.3459038  35.7582819  42.9740490   2.8684617  36.2249724
  40.4648848   2.2752769  35.1395634  39.9019683   1.8625379  35.6635296
  41.2269871   2.2005675  35.5588778  40.4943296   2.2030169  35.2788635
  36.0244839   4.2650790  27.7432264  36.7265418   3.7502779  27.8005021
  35.9442322   4.5924941  28.5479140  36.1168600   4.2365016  27.8705057
  35.3495615   0.4557142  27.2517873  36.1884514   0.6880075  27.2991634
  35.3807384  -0.4138547  27.1824908  35.4777332   0.3614089  27.2482517
  35.9748318   0.8758017  31.5531178  36.5146543   0.7329148  32.2234550
  35.2918264   1.2754768  31.9215204  35.9540471   0.9137688  31.7065600
  43.0098447   2.4230628  38.8221756  43.7938864   2.5361476  39.1877498
  42.8095042   1.5971765  39.0180442  43.0964473   2.3177347  38.9056142
  31.3785463  -2.9041692  31.7065600  31.1123878  -3.7202575  31.8656590
  31.3924027  -2.8588536  30.8361115  31.3410185  -3.0184787  31.6019082
  43.1668841   4.3340730  32.4688211  42.3684086   4.0940230  32.7262080
  43.6154852   4.3855123  33.2155259  43.1143452   4.3063121  32.6173136
  42.4590528   0.3973346  18.6979166  42.8741676   0.0658370  18.0063662
  41.6282457   0.1642249  18.5699303  42.3978536   0.3144602  18.5770013
  31.7878876  -2.1182913  28.9877344  31.6054450  -2.1436027  28.1349636
  32.5228545  -1.6483975  29.0266253  31.8692940  -2.0521550  28.8675262
  38.1271936   0.1425878  26.0221286  38.7645883  -0.0962375  26.5673079
  38.5527008   0.3463037  25.2874446  38.2848102   0.1376888  25.9938443
  32.8184579   2.3814214  29.9055590  32.8588724   2.6529065  29.0775369
  33.3779103   2.9056122  30.3213378  32.9067924   2.4989969  29.8447478
  40.5093408   0.6198300  27.7015072  40.5832416   0.4573472  28.5556922
  41.3262914   0.8088490  27.4575554  40.6409767   0.6235043  27.7913098
  34.2699165   0.9656163  24.7309516  33.4437282   1.2117900  24.6043794
  34.3311156   0.8868244  25.5971574  34.1573332   0.9901112  24.8398460
  39.0497994   3.5833043  22.4328546  39.3396292   3.1922025  21.7087772
  39.7801475   3.7649748  22.8733821  39.2004878   3.5526857  22.3911353
  39.6392739  -1.6149211  33.5181676  39.1404433  -0.9033443  33.5966564
  40.4492963  -1.2948544  33.4799838  39.6848846  -1.4622362  33.5238245
  36.9903909   5.5600426  25.4988695  36.7704205   5.2697780  26.2915362
  36.7698431   4.9015381  24.9706608  36.9251504   5.4200134  25.5377604
  35.9020857  -2.3526258  27.7644397  35.6134105  -2.9788787  28.2990124
  36.7704205  -2.4105970  27.8309077  35.9881109  -2.4538714  27.8535351
  39.1571865   6.9329816  24.2819388  39.8095923   6.4006258  24.5110414
  38.4597474   6.5798468  24.6687262  39.1502583   6.8019339  24.3731555
  36.1053130  -0.7131007  23.6886762  36.8599098  -0.3317968  23.9022224
  35.5123743  -0.2619863  24.1433458  36.1289844  -0.5902179  23.7869640
  37.4251357   0.4577555  29.0626877  36.9032110   0.5977846  29.7478742
  37.8125377  -0.3011781  29.2528995  37.4055058   0.3663078  29.1927954
  43.6218362   2.1973014  23.0487446  43.3805037   1.4640875  22.6414511
  43.8019694   2.7459871  22.3953779  43.6125986   2.1695405  22.8917669
  34.9003829  -3.2205616  33.6843377  35.4124926  -2.9421363  33.0352136
  34.6140172  -2.4816322  34.0506190  34.9338692  -3.0703262  33.6433255
  46.8521109  -0.0537796  29.6559504  46.7135468   0.6443249  30.1608247
  46.0721106  -0.2089140  29.2995686  46.7164335   0.0262370  29.6785778
  37.9897842   4.1638335  32.1456733  38.1387406   3.6041251  31.4930137
  38.7697844   4.2430336  32.5289252  38.1271936   4.0923900  32.1053682
  40.5151143   4.3352978  33.4241224  40.4394814   3.6661788  33.9792012
  40.4441002   5.0370766  33.9381890  40.4931749   4.3397885  33.5818072
  41.1721390   2.8553976  24.2564830  41.9371281   2.5863620  23.9347494
  41.0699479   2.3703987  24.9734892  41.2702885   2.7443541  24.3144657
  43.6940050  -0.1133840  16.2364779  44.4613035  -0.0533715  15.8270631
  43.2471359  -0.6853398  15.7521098  43.7413477  -0.1897264  16.1042489
  46.5934580   1.5485948  20.7527689  46.6754418   2.3552935  20.4289140
  47.0784322   1.5681908  21.4768463  46.6771738   1.6706611  20.8114588
  39.9042777   7.7421297  31.8819224  40.3938707   7.0432087  31.6994889
  39.3327009   7.4445167  32.4695282  39.8927307   7.5947521  31.9420265
  35.6913528  -3.2777164  24.8525740  35.8478148  -3.3430361  25.7081732
  36.0314122  -2.5028612  24.6404419  35.7646763  -3.1727966  24.9480334
  46.1009780   0.3083367  40.8346015  46.9144646   0.0368516  40.9951148
  45.9404747   0.0090907  40.0306211  46.1979729   0.2238293  40.7391421
  40.3979123   1.4898071  21.0059131  40.4671943   0.6312609  21.1452131
  41.1767578   1.7069952  20.6778156  40.5231973   1.3950935  20.9776288
  44.7886610   3.9135772  25.2195624  44.3966402   3.6102487  24.5018490
  44.9439683   4.7504862  25.0300578  44.7540200   3.9919609  25.0852121
  44.9526285   0.4785761  25.1601655  44.5940940   0.6500404  25.9365687
  44.4664996   0.9398967  24.6029653  44.8284982   0.5724732  25.1926924
  46.1131024   1.3689657  36.1068856  46.7510745   0.8749853  35.7731312
  45.4705116   1.2967057  35.5221083  46.1125251   1.2848665  35.9711211
  46.1685281   2.0609465  32.7474212  46.9577659   1.7098530  32.8676294
  46.3428879   2.8745854  32.4850846  46.3105563   2.1295322  32.7262080
  37.7813607   0.6149311  33.7571697  37.6733962   0.6251373  34.6233755
  37.9909389   1.4404091  33.5676650  37.7963718   0.7390386  33.8575788
  35.7987399  -2.1338047  31.2193634  35.2075333  -1.4928549  31.1896649
  36.5608423  -1.7100429  31.1924934  35.8235660  -1.9762208  31.2108781
  45.5576916   3.3171265  28.6525659  45.3596604   3.8062079  27.9581870
  44.9364627   3.5212506  29.2309792  45.4364480   3.4187803  28.6348882
  33.0563261  -0.4603949  32.3627550  32.5263186  -1.1511510  32.4122525
  33.3288355  -0.4693764  31.5340259  33.0187984  -0.5636817  32.2474966
  44.0883352   0.1221753  21.0865233  44.8117551   0.5879866  20.9429806
  43.6483943   0.1895363  20.3362830  44.1299044   0.2005590  20.9550014
  28.3359104  -3.7876185  29.7195899  28.2302553  -3.8329341  28.8547983
  27.5859324  -3.4422405  30.0010184  28.2094707  -3.7435277  29.6333229
  41.7379421   0.2679200  33.3159351  41.2304512   0.8215047  33.7599981
  41.4406068   0.3287490  32.4978125  41.6184306   0.3585512  33.2607807
  44.3487202   4.1842458  21.2463294  43.6316511   4.0103320  20.7810532
  44.9993939   3.9495030  20.7138780  44.3389052   4.1238251  21.0992512
  40.9821907   5.2003759  30.2216358  40.7587561   4.4422588  30.5900384
  40.4931750   5.2301780  29.4996797  40.8765356   5.0925983  30.1693099
  43.0392896  -0.6314509  37.7728291  42.9988751  -1.2764832  37.1873447
  43.8516214  -0.6877892  38.0853703  43.1536049  -0.7355542  37.7325240
  39.6300364   5.4204217  27.6753442  39.2160762   4.7578347  27.2857284
  40.3147738   5.5682075  27.1549136  39.6698735   5.3444875  27.5409939
  42.9965658   4.5794302  28.4277059  42.5981941   4.6896572  27.6597879
  42.3816877   4.7876368  29.0103619  42.8464547   4.6267870  28.4008358
  40.3407546  -1.3356793  20.7789318  39.5318869  -1.6590120  20.7322628
  40.8482455  -2.0423571  20.7117567  40.2957213  -1.4875477  20.7619613
  30.9697823  -3.9084600  26.5036683  30.1043343  -3.9198910  26.3919454
  31.0696639  -4.0954377  27.3507822  30.8571990  -3.9378539  26.6125627
  36.5954833   5.8613298  30.0766788  36.9101392   6.6749687  30.0844570
  37.0048246   5.4763517  30.7448947  36.7022931   5.9242001  30.1770880
  43.5479353   1.2783345  27.6470600  44.0190531   1.9923608  27.8160585
  43.8839531   0.6782095  28.1830470  43.6674468   1.2954809  27.7502976
  45.6356337   2.8884659  39.8262672  45.7453303   2.0993219  40.1819419
  45.9647234   2.7990595  39.0237010  45.7008743   2.7590511  39.7605063
  44.1853299   1.0701279  34.4098293  43.6374245   0.4459163  34.1418358
  44.6466328   1.2595551  33.6942372  44.1720509   1.0060329  34.2648724
  33.9367853  -0.1913593  29.7245397  34.5412711  -0.2317759  29.0959217
  33.7295166   0.6557559  29.7549452  33.9956751  -0.0725591  29.6361513
  43.7511625   2.0752352  30.9407634  44.5709999   1.9315318  31.2023929
  43.4705703   2.6998551  31.4824072  43.8308369   2.1462704  31.0595573
  29.1719136  -1.2078976  29.5944320  29.0743414  -2.0182704  29.9034376
  29.9548005  -1.2287182  29.2090588  29.2735272  -1.3311885  29.5831183
  60.2225276   9.7317204  23.9050510  60.1919280  10.5861840  24.0768780
  60.8206625   9.4312496  24.4636654  60.3062434   9.8133700  24.0125313
  53.4224961   8.8192855  28.6603441  52.5662856   8.9801353  28.7112558
  53.4692614   7.9484919  28.6808502  53.3024072   8.7143657  28.6709507
  47.8066100  18.3555573  24.4240672  47.0549000  17.9771111  24.1956717
  48.2552112  18.3874006  23.6759483  47.7615767  18.3041180  24.2798174
  56.7318677  15.0879380  38.2663897  57.4385444  14.5931411  38.3950831
  56.9206613  15.5288462  37.5366555  56.8646583  15.0797731  38.1772942
  53.2591060  18.7780942  19.8526219  52.9242429  19.4557864  19.4170442
  53.7717931  18.3886253  19.2643091  53.2856641  18.8205520  19.7013011
  52.7995352  20.7295211  25.7937331  53.1834731  21.2982109  25.2542106
  52.7354493  20.0044721  25.3143147  52.8468779  20.7070674  25.6431194
  56.2676782  10.8784899  31.3035092  56.8132742  11.5569985  31.3629062
  56.2093658  10.7372360  30.4436674  56.3392696  10.9576900  31.1847153
  49.3850857  18.3673965  26.6903445  49.4861219  17.5574319  27.0000573
  48.7892602  18.2730911  26.0603123  49.3123395  18.2338993  26.6429683
  58.0441850  12.3069506  22.1768820  57.9281376  13.0577192  22.6060958
  58.8397737  12.0493459  22.4264907  58.1446440  12.3804353  22.2772912
  49.2251596  23.2851554  28.0918301  49.8689052  23.7264718  28.4814459
  49.5507852  22.4804980  28.0048560  49.3683425  23.2316749  28.1363778
  42.5815901  14.3894251  26.3155778  42.3466085  13.5561904  26.2088047
  42.7201542  14.6698917  25.5016979  42.5671563  14.3077755  26.1798133
  44.8805988   6.5579982  29.2140086  44.2611020   5.9672629  29.0450101
  44.7789852   7.1491417  28.5804409  44.7743664   6.5584064  29.0945076
  49.9272176  16.2963529  23.4638163  50.2488017  16.8368736  22.8599471
  50.5744272  15.7260300  23.5960452  50.0698231  16.2922704  23.3945198
  51.9773884   8.2979524  23.5472549  52.6754049   8.4767651  24.0394013
  52.2926216   7.7749863  22.9242939  52.1269221   8.2473296  23.5274559
  44.6075121  10.1032264  31.4583655  44.4833818  10.6894709  32.0933474
  45.2593406   9.6092459  31.7595930  44.6848771  10.1171068  31.5969584
  52.1661819  14.6849969  23.5352341  52.6055455  14.0767069  23.9807114
  52.0166482  14.3057342  22.7637806  52.2083285  14.5388440  23.4871508
  49.6333462  13.2793981  30.7371166  50.2782465  12.7866424  30.4182115
  49.8735239  13.4218767  31.5637245  49.7644047  13.2271423  30.8120699
  52.1719554  16.1248886  30.3878059  52.4542796  15.3300292  30.1664815
  52.9005714  16.6029474  30.4083120  52.3209117  16.0783483  30.3581074
  50.1500747   3.6671920  27.6293824  49.8204078   4.1183064  26.9597523
  49.4745749   3.5888084  28.1766830  50.0011184   3.7223056  27.6117047
  55.7671156  13.0377150  20.4883110  55.6822451  13.8938117  20.6332679
  56.2555539  12.7621474  21.1565269  55.8260053  13.1234471  20.6085192
  56.6989589   9.6561944  21.9880845  56.1701061   9.8721578  22.6478151
  57.2214609  10.3498083  21.9081814  56.6978042   9.7905081  22.0736444
  62.1537642  15.2308249  27.3613890  61.3235345  15.4418892  27.5247306
  62.1046894  14.4045303  27.0856173  62.0244377  15.1397855  27.3451255
  48.5889197  13.5525161  20.7888313  48.0046412  14.0575192  21.1954177
  48.1859292  13.3267548  20.0484905  48.4428501  13.5933409  20.7393338
  44.1433225  19.2679922  27.5911985  43.6600804  19.9930412  27.5671568
  44.9556544  19.5656052  27.7022142  44.1923973  19.4182276  27.6039264
  50.2147380  18.0612103  30.1961799  49.6974321  17.7019518  29.5923107
  50.9121771  17.5374277  30.2067865  50.2412961  17.9309791  30.1092058
  53.8710972  18.5106917  36.1577972  53.9594317  18.3233057  37.0056182
  54.3000684  17.8644346  35.7582819  53.9473074  18.3869925  36.2249724
  51.4381431  17.7938077  35.1395634  50.8752266  17.3810687  35.6635296
  52.2002455  17.7190982  35.5588778  51.4675880  17.7215477  35.2788635
  53.0466411   9.7990813  19.2657234  53.2862415  10.0068797  18.4532577
  53.3682252   8.9948322  19.3746178  53.1303569   9.7104914  19.1617787
  48.3556702   1.7284209  23.1116772  49.1102670   2.0962526  22.8733822
  48.1784236   2.1023763  23.8795951  48.4411180   1.8382397  23.1901660
  46.9977423  19.7836098  27.7432264  47.6998002  19.2688087  27.8005021
  46.9174906  20.1110249  28.5479140  47.0901183  19.7550324  27.8705057
  61.6491600   7.8778649  31.1564311  60.8120021   7.9480836  31.3911905
  61.6179831   7.8803144  30.2838613  61.5209883   7.8888876  31.0623859
  48.0456329  10.0211685  36.8712680  48.2176833   9.9117580  37.7197961
  48.5825687  10.6666090  36.6343872  48.1501333  10.1003687  36.9617776
  46.7113766   4.1354528  19.8094885  46.5289339   4.3526409  18.9835877
  47.5739379   4.2493540  19.8653499  46.8118356   4.1844426  19.6949372
  46.3228198  15.9742450  27.2517873  47.1617098  16.2065383  27.2991634
  46.3539967  15.1046761  27.1824908  46.4509916  15.8799396  27.2482517
  46.9480901  16.3943325  31.5531178  47.4879126  16.2514456  32.2234550
  46.2650847  16.7940076  31.9215204  46.9273055  16.4322996  31.7065600
  56.3721786  12.0734326  26.7476202  57.1279301  12.5065840  26.7865111
  56.4784111  11.4239096  27.3210838  56.4991957  12.0411810  26.8374228
  59.4101957  15.9007603  27.4978605  58.9737189  15.9044345  28.2537577
  59.0764873  16.5813102  27.0658183  59.2964577  16.0020059  27.5459438
  53.9831031  17.9415936  38.8221756  54.7671447  18.0546784  39.1877498
  53.7827625  17.1157073  39.0180442  54.0697056  17.8362655  38.9056142
  42.3518046  12.6143616  31.7065600  42.0856461  11.7982733  31.8656590
  42.3656610  12.6596772  30.8361115  42.3142769  12.5000521  31.6019082
  46.2575793   7.4128700  18.3217358  45.5433970   7.1266880  18.7339790
  46.7419762   7.7525326  18.9623745  46.2235157   7.4210350  18.4772993
  47.1016653   6.1521994  34.3532607  46.4088449   5.6818974  34.5993339
  47.7176980   5.9260299  34.9274314  47.0901183   6.0489126  34.4741760
  54.1401424  19.8526038  32.4688211  53.3416670  19.6125538  32.7262080
  54.5887436  19.9040431  33.2155259  54.0876035  19.8248429  32.6173136
  62.5446303  12.6188523  26.3898243  63.2062737  12.0579191  26.2894151
  61.9037715  12.1240554  26.7150934  62.5475171  12.4624932  26.4230583
  53.4323111  15.9158654  18.6979166  53.8474260  15.5843678  18.0063662
  52.6015041  15.6827557  18.5699303  53.3711120  15.8329910  18.5770013
  42.7611460  13.4002395  28.9877344  42.5787033  13.3749281  28.1349636
  43.4961129  13.8701333  29.0266253  42.8425524  13.4663758  28.8675262
  58.8311134  13.6353905  26.1310231  59.0666723  13.7799104  25.3037082
  58.9800698  14.3996313  26.5241745  58.8876937  13.7692960  26.0673835
  45.8257212  10.1187398  35.4959452  46.5497184  10.1040429  35.9824347
  45.9273348  10.8282753  34.9981421  45.9475421  10.2212101  35.4938239
  60.6601591  12.4755571  23.9679835  60.9909808  13.0083211  23.3619930
  61.2334679  12.5294459  24.6241786  60.7935270  12.5625140  23.9757617
  53.2002161  13.5986483  40.3608399  52.4075142  13.9129995  40.5461019
  53.3151088  13.8137951  39.5229184  53.0997572  13.6770320  40.2646734
  55.8733480  10.3220474  24.6503415  55.9680334  11.0609768  25.1043041
  55.2492324   9.8937949  25.0837980  55.7942510  10.3681795  24.7811563
  54.1285954  13.5006687  35.2993696  54.7024815  12.8633931  35.4542260
  54.0500758  13.5010769  34.4303354  54.2019189  13.4071798  35.1940107
  42.7282370  10.2795896  29.1376410  43.3055873  10.1432347  29.7768656
  42.0296432   9.8231680  29.3921995  42.7103392  10.1918162  29.2698700
  56.1256501  12.1669214  17.8840367  56.0436664  12.2371401  18.7495354
  56.7636222  12.7298958  17.6924108  56.2076339  12.2608185  17.9830317
  49.4849672  11.9329952  27.3514894  49.2268917  11.1001687  27.3246193
  49.5398155  12.1587565  26.5107394  49.4549450  11.8427723  27.2235030
  54.5650723   4.0358402  27.4518986  53.8607049   3.5467588  27.6102905
  54.6135697   4.0480877  26.5807431  54.4680774   3.9648050  27.3458326
  48.4584385   9.4867714  27.8379788  47.8833976   9.6459883  28.4743749
  48.0820061   8.8503123  27.3748239  48.3187197   9.4165527  27.8634347
  52.1257673   7.9591063  32.6972167  51.7372106   7.5345281  32.0424358
  51.4612372   8.2073213  33.2049193  51.9704601   7.9329785  32.6760035
  61.7680942   7.7166068  25.4719997  61.5117507   6.9046010  25.2817880
  62.6110256   7.7243635  25.2450184  61.8546968   7.5978066  25.4104814
  38.2041203   9.1307789  25.8524229  38.2901455   8.7539657  26.6337759
  38.8317001   8.7568235  25.3744187  38.3097754   9.0193271  25.8969706
  53.2296611  12.1889668  20.8948974  54.0437250  12.4804561  20.7831745
  53.1655753  11.5349530  20.3207267  53.3399351  12.1354863  20.7937811
  59.4506102  14.8715664  35.3078549  59.2144739  14.0403729  35.1890610
  60.0949331  14.8201271  35.8933394  59.5100772  14.7413352  35.3764443
  49.1004520  15.6611186  26.0221286  49.7378467  15.4222933  26.5673079
  49.5259591  15.8648344  25.2874446  49.2580686  15.6562196  25.9938443
  43.7917162  17.8999522  29.9055590  43.8321307  18.1714373  29.0775369
  44.3511686  18.4241430  30.3213378  43.8800508  18.0175277  29.8447478
  49.7407335  10.8813475  20.3596175  50.1252487  10.6621182  21.1112720
  49.4918955  11.7076421  20.4897252  49.7609407  10.9711622  20.4897252
  49.9075875   4.1619890  40.0758759  49.5929316   4.9319453  39.8128322
  49.5865808   3.5990147  39.4910986  49.8134794   4.1930159  39.9500109
  60.4742522  14.6560113  31.3706844  60.1688339  15.3888170  31.7320160
  59.7548738  14.2498042  31.0899630  60.3229865  14.7041846  31.3819981
  51.4825992  16.1383608  27.7015072  51.5565000  15.9758780  28.5556922
  52.2995498  16.3273798  27.4575554  51.6142350  16.1420351  27.7913098
  66.1744314  11.2953114  30.6975188  66.1068815  11.3149073  29.8277775
  66.1599977  12.1383441  30.9230859  66.1623071  11.4226848  30.6027665
  45.2431748  16.4841471  24.7309516  44.4169866  16.7303208  24.6043794
  45.3043740  16.4053552  25.5971574  45.1305915  16.5086420  24.8398460
  47.4607772   2.5510412  25.6904956  46.5930198   2.6233011  25.7562565
  47.7482976   3.3532491  25.8792931  47.3747520   2.6804559  25.7279722
  50.0230577  19.1018351  22.4328546  50.3128876  18.7107333  21.7087772
  50.7534058  19.2835056  22.8733821  50.1737462  19.0712165  22.3911353
  63.9602932  10.0697500  28.9721783  64.5110853   9.4365569  29.2118875
  63.9447047  10.6012893  29.6637287  64.0388128  10.0546448  29.1100641
  50.6125323  13.9036097  33.5181676  50.1137016  14.6151865  33.5966564
  51.4225547  14.2236764  33.4799838  50.6581429  14.0562946  33.5238245
  47.9636493  21.0785734  25.4988695  47.7436788  20.7883088  26.2915362
  47.7431015  20.4200689  24.9706608  47.8984087  20.9385442  25.5377604
  46.8753440  13.1659050  27.7644397  46.5866689  12.5396521  28.2990124
  47.7436788  13.1079338  27.8309077  46.9613692  13.0646594  27.8535351
  57.6631338   8.3093834  28.0826379  57.3196104   7.5884169  28.4333628
  57.7624381   8.1007685  27.2404737  57.6273381   8.1718037  28.0098059
  50.1304449  22.4515124  24.2819388  50.7828507  21.9191566  24.5110414
  49.4330057  22.0983776  24.6687262  50.1235167  22.3204647  24.3731555
  47.0785714  14.8054301  23.6886762  47.8331682  15.1867340  23.9022224
  46.4856326  15.2565445  24.1433458  47.1022427  14.9283129  23.7869640
  58.1244367  14.7719538  23.6250367  58.6902400  15.4312747  23.5408910
  57.4772270  15.1169236  24.0966769  58.1123123  14.9201479  23.6823123
  49.5392381   6.7617142  38.8143974  48.7292156   7.0674921  38.7033817
  50.0167067   7.4822724  38.9296558  49.4895859   6.9131743  38.8151045
  48.3983940  15.9762863  29.0626877  47.8764694  16.1163154  29.7478742
  48.7857960  15.2173527  29.2528995  48.3787641  15.8848386  29.1927954
  45.3875124   6.0268671  23.1321832  45.0999920   5.6569942  22.3953779
  46.0745592   6.4963527  22.8705537  45.4464021   6.0415641  22.9836908
  54.5950945  17.7158322  23.0487446  54.3537621  16.9826182  22.6414511
  54.7752278  18.2645179  22.3953779  54.5858569  17.6880713  22.8917669
  49.8250266  13.0066882  24.4608368  49.6293048  13.6141616  23.8668671
  50.0484611  12.3134826  23.9800042  49.8284907  12.9944407  24.3024449
  48.2228796   9.8921619  24.5789237  48.9451448  10.0562778  24.1193043
  47.7436789  10.6131284  24.4728576  48.2592526  10.0219849  24.4954851
  56.1822303   6.2285418  29.9585922  55.3433404   6.2546697  29.7224185
  56.2526671   6.8756154  30.5391268  56.0690697   6.3281544  30.0095039
  45.8736412  12.2979692  33.6843377  46.3857509  12.5763945  33.0352136
  45.5872755  13.0368986  34.0506190  45.9071276  12.4482046  33.6433255
  60.0579827  11.4353405  27.2447163  59.9713802  11.5908831  28.0981942
  59.6030307  12.0791481  26.8706568  59.9783084  11.5529160  27.3154270
  42.9603319   6.8049884  23.9807113  43.0619455   7.6076045  24.3088089
  43.7559206   6.6037220  23.6830194  43.0931224   6.8935783  23.9842468
  49.3920138   4.3906080  33.7444418  49.2003335   4.4061215  34.5943842
  50.2418734   4.5869755  33.7211073  49.4895860   4.4220432  33.8667713
  43.7767051   6.9197062  31.7228235  43.6352543   6.0681003  31.8472743
  44.0607614   6.9625723  30.8990441  43.7974897   6.7996812  31.6195859
  53.9305643   8.7564152  25.8672723  53.6840358   8.6759903  26.7009512
  54.2590766   7.9717620  25.6735250  53.9426887   8.6290417  25.9620246
  57.8253692  15.4647511  29.6559504  57.6868051  16.1628557  30.1608247
  57.0453690  15.3096168  29.2995686  57.6896919  15.5447678  29.6785778
  56.1631777  11.7643887  35.9081886  56.1579816  10.8923703  35.9124312
  56.8692771  11.9632056  35.4351342  56.2676781  11.6647761  35.8388921
  49.8902671  11.4920871  35.2795706  50.0346046  12.0722079  34.6438816
  50.2378319  11.8697167  35.9845561  49.9630132  11.6341575  35.2894701
  52.0622588  10.6911039  33.0620838  51.3145902  10.8842053  32.6569116
  52.2164113   9.8656259  32.8244959  51.9745015  10.5976151  32.9666243
  48.9630426  19.6823643  32.1456733  49.1119989  19.1226558  31.4930137
  49.7430428  19.7615644  32.5289252  49.1004519  19.6109208  32.1053682
  59.3207065  14.8225765  20.4176003  58.9413874  14.0362903  20.4105293
  58.6573310  15.3712622  20.2747648  59.1665540  14.7870589  20.3956800
  51.4883726  19.8538285  33.4241224  51.4127397  19.1847096  33.9792012
  51.4173585  20.5556074  33.9381890  51.4664333  19.8583193  33.5818072
  52.3024365   4.5861590  33.9516241  52.7596979   5.3185564  34.0789034
  52.3780694   4.1628055  34.7103497  52.3815335   4.6318828  34.0817318
  44.5457356   4.8327410  35.0405685  44.0099546   4.2207768  35.3566452
  44.6075121   5.4075546  35.6939352  44.4752989   4.8274337  35.1841112
  52.1453973  18.3739284  24.2564830  52.9103864  18.1048928  23.9347494
  52.0432063  17.8889295  24.9734892  52.2435469  18.2628849  24.3144657
  50.1806743   6.5763694  30.7958065  49.3902818   6.3955154  31.1175401
  50.5767366   5.7990646  30.7788360  50.1223619   6.4351155  30.8410614
  54.6672634  15.4051468  16.2364779  55.4345619  15.4651593  15.8270631
  54.2203943  14.8331910  15.7521098  54.7146061  15.3288044  16.1042489
  55.5650429  14.2106124  28.5217511  54.8895431  13.9791356  29.0230898
  55.5742805  13.6027307  27.8959616  55.4668934  14.0865049  28.5033664
  52.6944573   9.0523953  35.2781564  52.6303714   9.9133909  35.1501701
  52.8341761   8.7355946  34.4777116  52.7060043   9.1324120  35.1409777
  57.5667164  17.0671256  20.7527689  57.6487001  17.8738242  20.4289140
  58.0516906  17.0867216  21.4768463  57.6504322  17.1891919  20.8114588
  51.3763667  11.7456092  29.4197767  50.9525916  11.9460591  28.6836786
  51.2008522  10.8984940  29.5322067  51.2874548  11.6504874  29.3271457
  50.8775360  23.2606605  31.8819224  51.3671291  22.5617394  31.6994889
  50.3059593  22.9630475  32.4695282  50.8659890  23.1132829  31.9420265
  46.6646112  12.2408144  24.8525740  46.8210731  12.1754946  25.7081732
  47.0046705  13.0156696  24.6404419  46.7379347  12.3457342  24.9480334
  53.2025257  11.6166027  23.7219103  53.7440802  11.1136408  24.1857724
  53.5171816  11.5631222  22.9108588  53.3289654  11.5345448  23.6702915
  57.0742364  15.8268675  40.8346015  57.8877229  15.5553823  40.9951148
  56.9137330  15.5276215  40.0306211  57.1712312  15.7423601  40.7391421
  51.3711706  17.0083379  21.0059131  51.4404527  16.1497917  21.1452131
  52.1500161  17.2255260  20.6778156  51.4964556  16.9136243  20.9776288
  54.3514526   6.5102332  33.7741403  54.5656496   5.8713246  33.2204757
  53.7348425   6.9548156  33.3449265  54.2919855   6.4812475  33.6291834
  55.7619194  19.4321080  25.2195624  55.3698986  19.1287795  24.5018490
  55.9172266  20.2690170  25.0300578  55.7272784  19.5104917  25.0852121
  43.2380373   9.4243094  25.1686507  43.6179338   9.8427639  24.5046774
  42.6635738  10.0056550  25.4755350  43.2091698   9.5720953  25.1163248
  56.5153614   8.1191397  34.7124710  55.7030296   7.8117287  34.7937883
  56.9743549   7.6390397  35.2767423  56.4633999   8.0027889  34.8079305
  55.9258869  15.9971069  25.1601655  55.5673523  16.1685712  25.9365687
  55.4397579  16.4584275  24.6029653  55.8017566  16.0910040  25.1926924
  50.7147234  11.6770234  17.7001889  51.0039759  12.4535117  17.9745463
  50.8019033  11.1658966  18.4016389  50.7701490  11.7162153  17.8444387
  53.6107121   9.5251468  39.4953413  54.0806753  10.1493585  39.8821287
  53.6569002   8.8568444  40.0546627  53.6874997   9.5186149  39.6353484
  57.0863608  16.8874965  36.1068856  57.7243329  16.3935161  35.7731312
  56.4437700  16.8152365  35.5221083  57.0857835  16.8033973  35.9711211
  58.8120608   8.7364111  30.6734771  58.3848216   8.6490459  29.9182871
  58.1746661   8.8441886  31.2589615  58.6550215   8.7396771  30.6480213
  52.3041685   3.8439636  36.6131741  53.1315115   3.5724785  36.6690355
  52.3249531   4.6400478  36.9695559  52.4294535   3.9219390  36.6746924
  57.1417865  17.5794773  32.7474212  57.9310243  17.2283838  32.8676294
  57.3161462  18.3931162  32.4850846  57.2838146  17.6480630  32.7262080
  46.8811175  10.9903499  29.8002001  46.0399182  10.8907373  30.0080895
  47.0901183  11.7598979  30.1516322  46.7875868  11.0895542  29.8829316
  44.3586742   8.6123036  27.6286752  43.9643440   8.6866048  26.8536862
  43.8026859   8.9980982  28.1795114  44.2189554   8.6804810  27.5954412
  50.6927840   8.9184898  29.0499599  50.3890977   8.3640886  29.6510006
  49.9907261   9.0977108  28.5627633  50.5444050   8.8629680  29.0669304
  49.7493937   6.2285418  23.6144301  50.0253671   5.5104330  23.2021868
  50.3492606   6.8270338  23.4065407  49.8787202   6.2105789  23.5225062
  48.7546191  16.1334619  33.7571697  48.6466546  16.1436681  34.6233755
  48.9641972  16.9589399  33.5676650  48.7696302  16.2575694  33.8575788
  53.2504457   3.8998935  21.8890896  53.7048204   4.0709496  22.6138740
  53.7244503   3.2867046  21.4888671  53.3872778   3.8349820  21.9364657
  46.7719983  13.3847261  31.2193634  46.1807916  14.0256759  31.1896649
  47.5341006  13.8084878  31.1924934  46.7968244  13.5423100  31.2108781
  47.1680606   4.5449259  31.8861652  47.6282087   4.6188188  32.6236776
  47.2136712   5.3430513  31.5361473  47.2431161   4.6743406  31.9434408
  48.8163955   5.2115954  36.4533679  48.4249521   4.5649301  36.8889457
  48.9849818   5.8027389  37.0727934  48.7834866   5.2030222  36.6096385
  62.8910404  13.2153031  32.2170912  62.9493528  13.6639680  32.9630889
  62.2576872  13.6251844  31.7800992  62.8061700  13.3426766  32.2623461
  56.5309499  18.8356573  28.6525659  56.3329188  19.3247387  27.9581870
  55.9097210  19.0397814  29.2309792  56.4097064  18.9373111  28.6348882
  50.5917477  10.6041470  22.9935903  51.3359522  10.9915746  23.2318853
  50.7378174   9.7598895  23.1576391  50.7228063  10.5371942  23.0529873
  53.5795353   6.1766943  28.8929822  53.1055308   5.6508705  29.4035133
  53.9513489   5.6296416  28.3244684  53.5645242   6.0182940  28.8844969
  43.9568383   8.1738450  34.2613368  44.8193997   8.0734159  34.1750698
  43.6260166   7.5933159  33.6998940  44.0353580   8.0730076  34.1658774
  59.8432084  11.2369319  30.3036603  59.6030307  10.3975734  30.3079029
  60.3224091  11.3169485  31.0277376  59.8784268  11.1250718  30.4111405
  55.5078853   7.0703497  21.9555576  54.9801872   7.1532241  21.2661285
  55.9674561   7.8121369  21.9520221  55.4980703   7.1924160  21.8530271
  61.8437271   8.0170776  28.2565862  61.6047041   7.9766610  27.4186646
  62.0071172   8.8641928  28.3831583  61.8327574   8.1362861  28.1519344
  58.4483301  12.4020725  34.1870907  59.1717500  11.9493251  34.0081927
  58.1833263  12.6825391  33.4043235  58.5164574  12.3771694  34.0449622
  47.3170169   6.9980899  30.9223786  46.6923240   7.0099291  30.3149739
  46.9815764   7.4741074  31.5715026  47.1755661   7.0699416  30.9280355
  47.5011918   5.3406017  16.9796471  47.1524722   5.9925742  17.4428021
  47.0208364   5.3263130  16.2520342  47.3782162   5.4349071  16.9407562
  44.0295845  15.0581359  32.3627550  43.4995770  14.3673798  32.4122525
  44.3020938  15.0491544  31.5340259  43.9920567  14.9548491  32.2474966
  55.0615936  15.6407061  21.0865233  55.7850134  16.1065174  20.9429806
  54.6216527  15.7080671  20.3362830  55.1031628  15.7190898  20.9550014
  54.2302091  12.5004603  32.3365922  53.6159084  11.9562654  32.6314557
  54.7469376  11.9868840  31.8571738  54.2157753  12.3441012  32.3090150
  53.4698388  13.5708873  30.0710221  53.0425996  12.9458592  29.6375656
  53.4623332  13.2883795  30.8969228  53.4057529  13.4361654  30.1290048
  46.5860915   8.6074046  33.1398655  46.7454402   7.8517371  33.5450377
  46.4053808   9.1564986  33.7939392  46.5826274   8.5767860  33.2961361
  51.7984097   4.4477628  30.2852755  51.8226585   3.9137740  29.5965535
  52.0495571   3.9394937  30.9478345  51.8394016   4.2938532  30.2817399
  39.3091687  11.7309123  29.7195899  39.2035136  11.6855967  28.8547983
  38.5591907  12.0762903  30.0010184  39.1827290  11.7750031  29.6333229
  48.0785420   3.1748446  29.6658499  48.1183791   3.6757653  30.3793206
  47.2535084   3.2658840  29.3964422  47.9624946   3.2630262  29.7309037
  50.2615033  12.7409186  37.7678794  49.4110663  12.8780900  37.9036439
  50.4243160  12.0072964  38.2126495  50.1598896  12.6523287  37.8534393
  49.4999783   9.6908956  31.9632398  48.6691713   9.8582774  31.7567646
  49.4451300   9.3144907  32.7481283  49.3689198   9.6598687  32.0480926
  47.3083566   3.1817849  37.5988809  47.9336270   2.6379982  37.8718241
  46.8534046   2.7012766  37.0296599  47.3331827   3.0307330  37.5550403
  47.8735827   7.9664547  22.4922516  48.0138788   8.4637012  23.1951157
  48.3718360   7.2650842  22.6336729  47.9676908   7.9366526  22.6174095
  47.9036049   8.8331659  19.8215093  48.5381129   9.4292084  19.7564554
  47.9861660   8.5335116  20.6360963  48.0092600   8.8772567  19.9318179
  49.4815032   4.7645634  19.7960535  49.8030873   4.2848716  19.1419797
  49.7441976   5.5745280  19.6051346  49.5681058   4.8135532  19.6716027
  52.7112005  15.7864508  33.3159351  52.2037096  16.3400355  33.7599981
  52.4138651  15.8472798  32.4978125  52.5916890  15.8770819  33.2607807
  54.8774187   4.1517828  32.1584014  55.3029259   3.6990354  31.5467540
  54.2631180   3.5977899  32.4348801  54.8502832   4.0031804  32.1089039
  44.4089037  11.0299499  23.0904639  44.9181266  11.6264007  23.4715944
  44.8823309  10.7625473  22.4081058  44.5532413  11.0785315  23.0459161
  55.3219785  19.7027766  21.2463294  54.6049095  19.5288628  20.7810532
  55.9726523  19.4680338  20.7138780  55.3121636  19.6423558  21.0992512
  57.9067756   8.5792355  24.9904599  57.2358946   9.1222057  24.8617665
  58.6007507   9.0487210  24.7486294  57.9096624   8.7290626  24.9360127
  51.9554490  20.7189067  30.2216358  51.7320145  19.9607896  30.5900384
  51.4664333  20.7487088  29.4996797  51.8497939  20.6111291  30.1693099
  58.0695884   5.0348238  27.8994972  58.4223494   4.6077961  28.5740771
  57.2110685   4.9499082  28.0296049  57.9945329   4.9592979  28.0189983
  46.7679569   7.6655758  25.9577819  46.0491558   8.0819890  26.2250683
  47.1391931   8.2309997  25.4069457  46.7171501   7.8105039  25.9160626
  56.0679150   8.2983607  31.8479815  56.0477077   8.1166902  32.7014594
  56.1158350   9.1695625  31.8239398  56.0713791   8.4000145  31.9703109
  54.0125480  14.8870799  37.7728291  53.9721334  14.2420476  37.1873447
  54.8248798  14.8307416  38.0853703  54.1268633  14.7829766  37.7325240
  50.6032947  20.9389525  27.6753442  50.1893346  20.2763655  27.2857284
  51.2880321  21.0867383  27.1549136  50.6431319  20.8630183  27.5409939
  53.9698241  20.0979610  28.4277059  53.5714524  20.2081880  27.6597879
  53.3549461  20.3061676  29.0103619  53.8197131  20.1453178  28.4008358
  52.5426143   6.7053758  21.2951198  51.9490983   7.0270754  20.7435765
  52.5801421   5.8594853  21.0872305  52.4600532   6.6278086  21.1833970
  55.4183960   6.6633262  24.7252949  55.1897653   6.6865964  23.8831307
  55.6782036   5.8390729  24.8447959  55.4230148   6.5449342  24.6178146
  49.7003188   8.5167735  34.3278049  49.1882091   7.9088918  34.6863080
  49.5282684   9.2324328  34.7952025  49.5992825   8.5331035  34.4494273
  44.5468903   6.9605311  36.9780411  44.3771493   7.6206685  36.4328617
  44.1034853   7.1711872  37.6992900  44.4568237   7.0891293  37.0042040
  48.4728722   5.2009809  26.0207144  48.9486089   5.5626888  25.3857325
  47.9717322   5.8566276  26.3007287  48.4694081   5.3503997  25.9683885
  61.7040084  14.6731577  21.8120149  62.0873690  15.4222933  22.0418246
  60.9084197  14.9197396  21.5532138  61.6433866  14.8201270  21.8077723
  53.5772259   6.4391980  36.7680304  54.1343689   6.2105789  36.1358770
  53.2533324   7.1997646  36.4915517  53.6118669   6.5175817  36.6336802
  41.4470967   9.8652176  32.2368901  40.8997687   9.1952822  32.3549769
  42.2363346   9.4982024  32.3012368  41.4823151   9.7117163  32.2637601
  51.2955376   9.5259633  37.7332312  52.0466703   9.8411310  38.0471866
  51.4877952   9.3238804  36.9066233  51.4346790   9.5427015  37.6575707
  50.5155375   7.3451008  19.3880528  50.8954340   7.3630638  18.6031643
  49.7747972   7.7904997  19.2671376  50.4624213   7.4132783  19.2544097
  58.1440666   5.6533200  24.9756107  58.1434892   5.4981856  25.8340383
  57.9396846   6.4996187  24.9197493  58.1140444   5.7553820  25.0944046
  40.2057937   9.0772984  29.3914924  40.0279698   8.6249593  30.1169839
  39.9176959   9.8799145  29.5753401  40.1370890   9.1295542  29.5258426
  55.8681518  10.3330701  28.6292314  56.3635183   9.6153696  28.5896334
  55.0581294  10.0301499  28.5146801  55.8225411  10.1828348  28.6066040
  51.3140130  14.1828515  20.7789318  50.5051452  13.8595188  20.7322628
  51.8215038  13.4761737  20.7117567  51.2689796  14.0309831  20.7619613
  41.9430407  11.6100708  26.5036683  41.0775926  11.5986398  26.3919454
  42.0429223  11.4230931  27.3507822  41.8304574  11.5806769  26.6125627
  57.9333337  13.0834389  31.3169443  58.3588408  12.5608811  30.7639868
  57.5690257  13.6815226  30.7958066  57.9419939  13.0944616  31.1578452
  47.5687417  21.3798606  30.0766788  47.8833976  22.1934995  30.0844570
  47.9780830  20.9948825  30.7448947  47.6755515  21.4427309  30.1770880
  54.5211936  16.7968653  27.6470600  54.9923115  17.5108916  27.8160585
  54.8572115  16.1967403  28.1830470  54.6407051  16.8140117  27.7502976
  56.6088921  18.4069966  39.8262672  56.7185886  17.6178527  40.1819419
  56.9379818  18.3175903  39.0237010  56.6741327  18.2775819  39.7605063
  55.1585883  16.5886587  34.4098293  54.6106829  15.9644471  34.1418358
  55.6198911  16.7780859  33.6942372  55.1453092  16.5245637  34.2648724
  57.9679747   4.6571942  31.7949485  57.3842736   5.1581148  31.3827052
  58.2884041   4.1501498  31.1613808  57.9292922   4.6563777  31.6407992
  50.5074546   3.5712537  22.0708160  51.3290241   3.7410849  21.8289855
  50.0444197   3.7259797  21.3474457  50.5605708   3.6194269  21.9279804
  49.0969878   1.5655299  32.8506589  49.6414291   1.2246426  33.4410930
  49.1506814   2.4240760  32.9927873  49.1858997   1.6410558  32.9588462
  44.9100437  15.3271715  29.7245397  45.5145294  15.2867549  29.0959217
  44.7027749  16.1742867  29.7549452  44.9689334  15.4459717  29.6361513
  54.7244209  17.5937660  30.9407634  55.5442583  17.4500626  31.2023929
  54.4438287  18.2183859  31.4824072  54.8040952  17.6648012  31.0595573
  40.1451719  14.3106332  29.5944320  40.0475997  13.5002604  29.9034376
  40.9280589  14.2898126  29.2090588  40.2467856  14.1873422  29.5831183
  71.1957859  25.2502512  23.9050510  71.1651864  26.1047148  24.0768780
  71.7939208  24.9497804  24.4636654  71.2795017  25.3319008  24.0125313
  64.3957544  24.3378163  28.6603441  63.5395440  24.4986661  28.7112558
  64.4425198  23.4670227  28.6808502  64.2756656  24.2328965  28.6709507
  58.7798684  33.8740881  24.4240672  58.0281583  33.4956419  24.1956717
  59.2284696  33.9059314  23.6759483  58.7348351  33.8226488  24.2798174
  67.7051261  30.6064688  38.2663897  68.4118028  30.1116719  38.3950831
  67.8939196  31.0473770  37.5366555  67.8379166  30.5983039  38.1772942
  64.2323644  34.2966250  19.8526219  63.8975012  34.9743172  19.4170442
  64.7450514  33.9071561  19.2643091  64.2589225  34.3390828  19.7013011
  63.7727935  36.2480519  25.7937331  64.1567314  36.8167417  25.2542106
  63.7087076  35.5230029  25.3143147  63.8201362  36.2255982  25.6431194
  60.3583440  33.8859273  26.6903445  60.4593803  33.0759627  27.0000573
  59.7625185  33.7916219  26.0603123  60.2855979  33.7524301  26.6429683
  69.0174434  27.8254814  22.1768820  68.9013960  28.5762500  22.6060958
  69.8130321  27.5678767  22.4264907  69.1179023  27.8989661  22.2772912
  60.1984180  38.8036862  28.0918301  60.8421635  39.2450026  28.4814459
  60.5240435  37.9990288  28.0048560  60.3416008  38.7502057  28.1363778
  53.5548484  29.9079559  26.3155778  53.3198669  29.0747212  26.2088047
  53.6934125  30.1884225  25.5016979  53.5404147  29.8263063  26.1798133
  55.8538572  22.0765290  29.2140086  55.2343603  21.4857937  29.0450101
  55.7522435  22.6676725  28.5804409  55.7476247  22.0769372  29.0945076
  60.9004759  31.8148837  23.4638163  61.2220600  32.3554044  22.8599471
  61.5476856  31.2445608  23.5960452  61.0430815  31.8108012  23.3945198
  62.9506467  23.8164832  23.5472549  63.6486632  23.9952959  24.0394013
  63.2658800  23.2935171  22.9242939  63.1001805  23.7658604  23.5274559
  55.5807705  25.6217572  31.4583655  55.4566402  26.2080017  32.0933474
  56.2325989  25.1277767  31.7595930  55.6581354  25.6356376  31.5969584
  63.1394403  30.2035277  23.5352341  63.5788038  29.5952377  23.9807114
  62.9899066  29.8242650  22.7637806  63.1815869  30.0573748  23.4871508
  60.6066046  28.7979289  30.7371166  61.2515048  28.3051732  30.4182115
  60.8467823  28.9404075  31.5637245  60.7376631  28.7456731  30.8120699
  63.1452137  31.6434194  30.3878059  63.4275380  30.8485600  30.1664815
  63.8738298  32.1214782  30.4083120  63.2941701  31.5968791  30.3581074
  61.1233331  19.1857228  27.6293824  60.7936661  19.6368372  26.9597523
  60.4478333  19.1073392  28.1766830  60.9743767  19.2408363  27.6117047
  66.7403739  28.5562458  20.4883110  66.6555035  29.4123425  20.6332679
  67.2288123  28.2806782  21.1565269  66.7992637  28.6419779  20.6085192
  68.3309739  15.1742751  25.8743435  68.0163180  15.8646230  26.3063857
  67.8136680  15.1187533  25.1728935  68.2074209  15.2677640  25.8340384
  67.6722173  25.1747252  21.9880845  67.1433644  25.3906886  22.6478151
  68.1947193  25.8683391  21.9081814  67.6710626  25.3090389  22.0736444
  73.1270226  30.7493557  27.3613890  72.2967929  30.9604200  27.5247306
  73.0779478  29.9230611  27.0856173  72.9976961  30.6583163  27.3451255
  59.5621780  29.0710469  20.7888313  58.9778996  29.5760500  21.1954177
  59.1591876  28.8452856  20.0484905  59.4161084  29.1118717  20.7393338
  55.1165809  34.7865230  27.5911985  54.6333387  35.5115720  27.5671568
  55.9289127  35.0841360  27.7022142  55.1656557  34.9367584  27.6039264
  61.1879963  33.5797411  30.1961799  60.6706905  33.2204826  29.5923107
  61.8854354  33.0559585  30.2067865  61.2145544  33.4495099  30.1092058
  64.8443555  34.0292225  36.1577972  64.9326901  33.8418365  37.0056182
  65.2733268  33.3829654  35.7582819  64.9205657  33.9055232  36.2249724
  62.4114015  33.3123385  35.1395634  61.8484850  32.8995995  35.6635296
  63.1735038  33.2376290  35.5588778  62.4408463  33.2400785  35.2788635
  64.0198995  25.3176121  19.2657234  64.2594999  25.5254105  18.4532577
  64.3414836  24.5133630  19.3746178  64.1036153  25.2290222  19.1617787
  59.3289285  17.2469517  23.1116772  60.0835253  17.6147834  22.8733822
  59.1516820  17.6209071  23.8795951  59.4143764  17.3567705  23.1901660
  57.9710006  35.3021406  27.7432264  58.6730586  34.7873395  27.8005021
  57.8907489  35.6295557  28.5479140  58.0633767  35.2735632  27.8705057
  72.6224184  23.3963957  31.1564311  71.7852605  23.4666144  31.3911905
  72.5912415  23.3988452  30.2838613  72.4942466  23.4074184  31.0623859
  59.0188913  25.5396993  36.8712680  59.1909417  25.4302887  37.7197961
  59.5558270  26.1851398  36.6343872  59.1233917  25.6188995  36.9617776
  57.6846350  19.6539836  19.8094885  57.5021923  19.8711717  18.9835877
  58.5471963  19.7678848  19.8653499  57.7850939  19.7029734  19.6949372
  57.2960782  31.4927758  27.2517873  58.1349681  31.7250691  27.2991634
  57.3272551  30.6232069  27.1824908  57.4242499  31.3984704  27.2482517
  57.9213485  31.9128633  31.5531178  58.4611710  31.7699764  32.2234550
  57.2383431  32.3125384  31.9215204  57.9005639  31.9508304  31.7065600
  63.3646069  16.6566246  22.8443908  64.0932229  16.4782201  22.3982065
  63.4540962  17.4984326  23.0551087  63.4852731  16.7550125  22.8097426
  67.3454370  27.5919634  26.7476202  68.1011885  28.0251148  26.7865111
  67.4516694  26.9424403  27.3210838  67.4724540  27.5597118  26.8374228
  70.3834541  31.4192911  27.4978605  69.9469773  31.4229653  28.2537577
  70.0497456  32.0998410  27.0658183  70.2697161  31.5205367  27.5459438
  64.9563614  33.4601244  38.8221756  65.7404031  33.5732092  39.1877498
  64.7560209  32.6342381  39.0180442  65.0429640  33.3547963  38.9056142
  53.3250630  28.1328924  31.7065600  53.0589045  27.3168041  31.8656590
  53.3389194  28.1782079  30.8361115  53.2875352  28.0185829  31.6019082
  70.3032024  18.4606739  29.7408033  70.9457932  18.5304843  30.3269949
  70.5555044  17.7935962  29.2387575  70.4354156  18.3733087  29.7535313
  57.2308377  22.9314008  18.3217358  56.5166554  22.6452188  18.7339790
  57.7152345  23.2710634  18.9623745  57.1967740  22.9395658  18.4772993
  58.0749236  21.6707302  34.3532607  57.3821033  21.2004282  34.5993339
  58.6909564  21.4445607  34.9274314  58.0633766  21.5674434  34.4741760
  65.1134008  35.3711346  32.4688211  64.3149253  35.1310846  32.7262080
  65.5620019  35.4225739  33.2155259  65.0608619  35.3433737  32.6173136
  73.5178887  28.1373831  26.3898243  74.1795321  27.5764499  26.2894151
  72.8770299  27.6425862  26.7150934  73.5207754  27.9810240  26.4230583
  64.4055695  31.4343962  18.6979166  64.8206843  31.1028986  18.0063662
  63.5747624  31.2012865  18.5699303  64.3443703  31.3515218  18.5770013
  53.7344043  28.9187703  28.9877344  53.5519617  28.8934589  28.1349636
  54.4693712  29.3886641  29.0266253  53.8158107  28.9849066  28.8675262
  69.8043718  29.1539213  26.1310231  70.0399307  29.2984412  25.3037082
  69.9533281  29.9181621  26.5241745  69.8609521  29.2878268  26.0673835
  56.7989795  25.6372706  35.4959452  57.5229767  25.6225737  35.9824347
  56.9005932  26.3468061  34.9981421  56.9208004  25.7397409  35.4938239
  71.6334174  27.9940879  23.9679835  71.9642392  28.5268519  23.3619930
  72.2067263  28.0479767  24.6241786  71.7667854  28.0810448  23.9757617
  64.1734745  29.1171791  40.3608399  63.3807725  29.4315303  40.5461019
  64.2883672  29.3323259  39.5229184  64.0730155  29.1955627  40.2646734
  66.8466064  25.8405782  24.6503415  66.9412918  26.5795076  25.1043041
  66.2224907  25.4123257  25.0837980  66.7675094  25.8867103  24.7811563
  65.1018537  29.0191995  35.2993696  65.6757399  28.3819239  35.4542260
  65.0233341  29.0196077  34.4303354  65.1751772  28.9257106  35.1940107
  53.7014954  25.7981204  29.1376410  54.2788456  25.6617655  29.7768656
  53.0029016  25.3416988  29.3921995  53.6835975  25.7103470  29.2698700
  67.0989085  27.6854522  17.8840367  67.0169247  27.7556709  18.7495354
  67.7368805  28.2484266  17.6924108  67.1808922  27.7793493  17.9830317
  60.4582256  27.4515260  27.3514894  60.2001500  26.6186995  27.3246193
  60.5130739  27.6772873  26.5107394  60.4282034  27.3613031  27.2235030
  65.5383306  19.5543710  27.4518986  64.8339633  19.0652896  27.6102905
  65.5868280  19.5666185  26.5807431  65.4413358  19.4833358  27.3458326
  59.4316968  25.0053022  27.8379788  58.8566559  25.1645190  28.4743749
  59.0552644  24.3688431  27.3748239  59.2919781  24.9350835  27.8634347
  63.0990257  23.4776371  32.6972167  62.7104690  23.0530589  32.0424358
  62.4344955  23.7258521  33.2049193  62.9437185  23.4515093  32.6760035
  72.7413526  23.2351376  25.4719997  72.4850091  22.4231318  25.2817880
  73.5842840  23.2428943  25.2450184  72.8279551  23.1163374  25.4104814
  49.1773787  24.6493097  25.8524229  49.2634039  24.2724965  26.6337759
  49.8049585  24.2753543  25.3744187  49.2830338  24.5378579  25.8969706
  66.9216618  17.1751000  30.2096151  67.3027130  16.4929171  30.5964025
  66.1179903  16.8860602  30.0271815  66.8593080  17.0318049  30.2400207
  64.2029195  27.7074976  20.8948974  65.0169834  27.9989869  20.7831745
  64.1388336  27.0534838  20.3207267  64.3131934  27.6540171  20.7937811
  70.4238685  30.3900972  35.3078549  70.1877323  29.5589037  35.1890610
  71.0681914  30.3386579  35.8933394  70.4833356  30.2598660  35.3764443
  60.0737103  31.1796493  26.0221286  60.7111050  30.9408241  26.5673079
  60.4992175  31.3833652  25.2874446  60.2313270  31.1747504  25.9938443
  54.7649746  33.4184830  29.9055590  54.8053891  33.6899681  29.0775369
  55.3244270  33.9426738  30.3213378  54.8533092  33.5360585  29.8447478
  60.7139918  26.3998783  20.3596175  61.0985071  26.1806490  21.1112720
  60.4651539  27.2261729  20.4897252  60.7341991  26.4896929  20.4897252
  60.8808459  19.6805198  40.0758759  60.5661900  20.4504761  39.8128322
  60.5598391  19.1175454  39.4910986  60.7867378  19.7115467  39.9500109
  71.4475106  30.1745421  31.3706844  71.1420923  30.9073478  31.7320160
  70.7281322  29.7683350  31.0899630  71.2962448  30.2227154  31.3819981
  62.4558575  31.6568916  27.7015072  62.5297584  31.4944088  28.5556922
  63.2728082  31.8459106  27.4575554  62.5874934  31.6605658  27.7913098
  77.1476898  26.8138422  30.6975188  77.0801398  26.8334381  29.8277775
  77.1332560  27.6568749  30.9230859  77.1355654  26.9412156  30.6027665
  56.2164332  32.0026779  24.7309516  55.3902450  32.2488516  24.6043794
  56.2776323  31.9238860  25.5971574  56.1038499  32.0271728  24.8398460
  58.4340356  18.0695720  25.6904956  57.5662781  18.1418319  25.7562565
  58.7215560  18.8717799  25.8792931  58.3480104  18.1989867  25.7279722
  67.5573244  18.2173579  34.0216278  68.3026836  18.0283390  33.6079703
  67.1410549  18.7431817  33.4630134  67.6058219  18.2675725  33.8780851
  60.9963161  34.6203659  22.4328546  61.2861459  34.2292640  21.7087772
  61.7266642  34.8020364  22.8733821  61.1470045  34.5897473  22.3911353
  74.9335515  25.5882808  28.9721783  75.4843437  24.9550877  29.2118875
  74.9179631  26.1198201  29.6637287  75.0120712  25.5731756  29.1100641
  61.5857906  29.4221405  33.5181676  61.0869600  30.1337173  33.5966564
  62.3958130  29.7422072  33.4799838  61.6314013  29.5748254  33.5238245
  58.9369077  36.5971042  25.4988695  58.7169372  36.3068396  26.2915362
  58.7163599  35.9385997  24.9706608  58.8716671  36.4570750  25.5377604
  57.8486024  28.6844358  27.7644397  57.5599272  28.0581829  28.2990124
  58.7169372  28.6264645  27.8309077  57.9346276  28.5831902  27.8535351
  68.6363922  23.8279141  28.0826379  68.2928687  23.1069477  28.4333628
  68.7356964  23.6192993  27.2404737  68.6005964  23.6903345  28.0098059
  61.1037032  37.9700431  24.2819388  61.7561090  37.4376874  24.5110414
  60.4062641  37.6169084  24.6687262  61.0967750  37.8389954  24.3731555
  58.0518297  30.3239609  23.6886762  58.8064265  30.7052648  23.9022224
  57.4588910  30.7750753  24.1433458  58.0755011  30.4468436  23.7869640
  69.0976951  30.2904846  23.6250367  69.6634983  30.9498055  23.5408910
  68.4504854  30.6354544  24.0966769  69.0855707  30.4386787  23.6823123
  60.5124964  22.2802449  38.8143974  59.7024740  22.5860229  38.7033817
  60.9899651  23.0008032  38.9296558  60.4628443  22.4317051  38.8151045
  59.3716524  31.4948170  29.0626877  58.8497277  31.6348462  29.7478742
  59.7590544  30.7358835  29.2528995  59.3520225  31.4033694  29.1927954
  56.3607708  21.5453979  23.1321832  56.0732504  21.1755250  22.3953779
  57.0478176  22.0148835  22.8705537  56.4196605  21.5600949  22.9836908
  65.5683529  33.2343630  23.0487446  65.3270205  32.5011490  22.6414511
  65.7484862  33.7830487  22.3953779  65.5591153  33.2066021  22.8917669
  60.7982849  28.5252189  24.4608368  60.6025632  29.1326924  23.8668671
  61.0217195  27.8320133  23.9800042  60.8017490  28.5129715  24.3024449
  59.1961379  25.4106927  24.5789237  59.9184031  25.5748086  24.1193043
  58.7169372  26.1316592  24.4728576  59.2325110  25.5405157  24.4954851
  67.1554887  21.7470726  29.9585922  66.3165988  21.7732005  29.7224185
  67.2259254  22.3941462  30.5391268  67.0423280  21.8466852  30.0095039
  56.8468996  27.8165000  33.6843377  57.3590093  28.0949253  33.0352136
  56.5605339  28.5554294  34.0506190  56.8803859  27.9667354  33.6433255
  65.6024165  18.6456103  24.6913538  66.3050518  18.4463852  24.2133496
  65.3368354  17.8732046  24.9982381  65.6670798  18.5019069  24.6658979
  71.0312411  26.9538713  27.2447163  70.9446385  27.1094139  28.0981942
  70.5762891  27.5976789  26.8706568  70.9515667  27.0714468  27.3154270
  53.9335902  22.3235192  23.9807113  54.0352039  23.1261353  24.3088089
  54.7291789  22.1222528  23.6830194  54.0663808  22.4121090  23.9842468
  60.3652721  19.9091388  33.7444418  60.1735918  19.9246523  34.5943842
  61.2151317  20.1055063  33.7211073  60.4628443  19.9405740  33.8667713
  54.7499634  22.4382370  31.7228235  54.6085126  21.5866311  31.8472743
  55.0340198  22.4811031  30.8990441  54.7707481  22.3182120  31.6195859
  64.9038227  24.2749460  25.8672723  64.6572941  24.1945211  26.7009512
  65.2323350  23.4902928  25.6735250  64.9159470  24.1475725  25.9620246
  68.7986276  30.9832819  29.6559504  68.6600635  31.6813865  30.1608247
  68.0186274  30.8281476  29.2995686  68.6629503  31.0632986  29.6785778
  67.1364361  27.2829195  35.9081886  67.1312399  26.4109011  35.9124312
  67.8425355  27.4817364  35.4351342  67.2409365  27.1833069  35.8388921
  60.8635254  27.0106179  35.2795706  61.0078630  27.5907387  34.6438816
  61.2110903  27.3882475  35.9845561  60.9362715  27.1526883  35.2894701
  63.0355171  26.2096347  33.0620838  62.2878486  26.4027361  32.6569116
  63.1896697  25.3841567  32.8244959  62.9477599  26.1161458  32.9666243
  59.9363009  35.2008950  32.1456733  60.0852573  34.6411866  31.4930137
  60.7163011  35.2800952  32.5289252  60.0737103  35.1294516  32.1053682
  70.2939649  30.3411073  20.4176003  69.9146457  29.5548211  20.4105293
  69.6305894  30.8897930  20.2747648  70.1398123  30.3055897  20.3956800
  63.2756949  20.1046898  33.9516241  63.7329563  20.8370872  34.0789034
  63.3513277  19.6813363  34.7103497  63.3547918  20.1504136  34.0817318
  55.5189940  20.3512717  35.0405685  54.9832129  19.7393076  35.3566452
  55.5807704  20.9260853  35.6939352  55.4485572  20.3459645  35.1841112
  67.7484274  13.2836773  27.8210084  67.8667843  13.7413236  27.0877387
  67.5746450  12.4782034  27.5346302  67.7403445  13.2330545  27.6711018
  63.1186557  33.8924592  24.2564830  63.8836448  33.6234236  23.9347494
  63.0164647  33.4074603  24.9734892  63.2168052  33.7814157  24.3144657
  61.1539326  22.0949002  30.7958065  60.3635401  21.9140462  31.1175401
  61.5499949  21.3175954  30.7788360  61.0956203  21.9536463  30.8410614
  65.6405217  30.9236776  16.2364779  66.4078202  30.9836901  15.8270631
  65.1936526  30.3517217  15.7521098  65.6878644  30.8473352  16.1042489
  66.5383013  29.7291432  28.5217511  65.8628015  29.4976664  29.0230898
  66.5475389  29.1212615  27.8959616  66.4401517  29.6050357  28.5033664
  63.6677157  24.5709261  35.2781564  63.6036298  25.4319217  35.1501701
  63.8074344  24.2541254  34.4777116  63.6792627  24.6509427  35.1409777
  68.5399747  32.5856564  20.7527689  68.6219585  33.3923550  20.4289140
  69.0249489  32.6052523  21.4768463  68.6236905  32.7077227  20.8114588
  62.3496251  27.2641400  29.4197767  61.9258500  27.4645899  28.6836786
  62.1741106  26.4170248  29.5322067  62.2607131  27.1690182  29.3271457
  57.6378696  27.7593452  24.8525740  57.7943315  27.6940254  25.7081732
  57.9779289  28.5342004  24.6404419  57.7111930  27.8642650  24.9480334
  64.1757840  27.1351335  23.7219103  64.7173386  26.6321716  24.1857724
  64.4904399  27.0816530  22.9108588  64.3022237  27.0530756  23.6702915
  68.0474948  31.3453983  40.8346015  68.8609813  31.0739131  40.9951148
  67.8869914  31.0461522  40.0306211  68.1444896  31.2608909  40.7391421
  62.3444290  32.5268687  21.0059131  62.4137110  31.6683225  21.1452131
  63.1232745  32.7440568  20.6778156  62.4697140  32.4321551  20.9776288
  65.3247110  22.0287640  33.7741403  65.5389079  21.3898554  33.2204757
  64.7081009  22.4733464  33.3449265  65.2652439  21.9997783  33.6291834
  66.7351777  34.9506388  25.2195624  66.3431569  34.6473103  24.5018490
  66.8904850  35.7875478  25.0300578  66.7005367  35.0290225  25.0852121
  54.2112957  24.9428402  25.1686507  54.5911922  25.3612947  24.5046774
  53.6368322  25.5241858  25.4755350  54.1824282  25.0906261  25.1163248
  67.4886198  23.6376705  34.7124710  66.6762879  23.3302595  34.7937883
  67.9476132  23.1575705  35.2767423  67.4366582  23.5213197  34.8079305
  66.8991452  31.5156377  25.1601655  66.5406107  31.6871020  25.9365687
  66.4130163  31.9769582  24.6029653  66.7750149  31.6095348  25.1926924
  64.7161838  15.1387575  28.7628746  63.8455396  15.1126296  28.7162056
  64.9702179  14.9664768  27.9454592  64.6255398  15.1097719  28.6348883
  61.6879818  27.1955542  17.7001889  61.9772342  27.9720425  17.9745463
  61.7751616  26.6844274  18.4016389  61.7434074  27.2347461  17.8444387
  64.5839705  25.0436776  39.4953413  65.0539336  25.6678893  39.8821287
  64.6301585  24.3753752  40.0546627  64.6607581  25.0371457  39.6353484
  61.7410979  17.1493804  30.2202217  61.2249467  16.4573995  30.3453796
  61.1804908  17.8164581  30.1664815  61.5817492  17.1457061  30.2308283
  63.8103212  17.6886764  32.0495069  63.4234965  17.7135795  32.8308599
  63.3236149  17.1228442  31.5969586  63.6815721  17.6082515  32.0982973
  68.0596192  32.4060273  36.1068856  68.6975912  31.9120468  35.7731312
  67.4170283  32.3337673  35.5221083  68.0590418  32.3219281  35.9711211
  69.7853192  24.2549419  30.6734771  69.3580800  24.1675767  29.9182871
  69.1479245  24.3627194  31.2589615  69.6282799  24.2582079  30.6480213
  63.4760354  14.5753749  34.3405329  64.1053472  15.1114049  34.0626399
  63.6446217  14.4831108  35.1918895  63.5938148  14.6415112  34.4253857
  63.2774269  19.3624944  36.6131741  64.1047698  19.0910093  36.6690355
  63.2982115  20.1585786  36.9695559  63.4027119  19.4404698  36.6746924
  68.1150448  33.0980081  32.7474212  68.9042826  32.7469146  32.8676294
  68.2894046  33.9116469  32.4850846  68.2570730  33.1665938  32.7262080
  57.8543759  26.5088807  29.8002001  57.0131765  26.4092681  30.0080895
  58.0633767  27.2784287  30.1516322  57.7608451  26.6080850  29.8829316
  55.3319326  24.1308344  27.6286752  54.9376023  24.2051356  26.8536862
  54.7759442  24.5166290  28.1795114  55.1922138  24.1990118  27.5954412
  66.9684272  17.1089638  27.3090631  67.1733866  17.0411946  28.1547628
  66.6410696  17.9148459  27.2411808  66.9499520  17.2175578  27.4250286
  61.6660423  24.4370206  29.0499599  61.3623561  23.8826194  29.6510006
  60.9639844  24.6162416  28.5627633  61.5176633  24.3814988  29.0669304
  60.7226521  21.7470726  23.6144301  60.9986255  21.0289638  23.2021868
  61.3225190  22.3455646  23.4065407  60.8519785  21.7291097  23.5225062
  59.7278774  31.6519927  33.7571697  59.6199129  31.6621989  34.6233755
  59.9374556  32.4774707  33.5676650  59.7428886  31.7761001  33.8575788
  70.2217960  17.6621402  26.7893396  69.6092274  18.1491804  27.1747128
  70.3182135  16.9864893  27.3331048  70.1455858  17.6339711  26.9272255
  64.2237041  19.4184243  21.8890896  64.6780788  19.5894804  22.6138740
  64.6977087  18.8052354  21.4888671  64.3605361  19.3535128  21.9364657
  57.7452566  28.9032569  31.2193634  57.1540500  29.5442067  31.1896649
  58.5073590  29.3270186  31.1924934  57.7700827  29.0608408  31.2108781
  58.1413189  20.0634567  31.8861652  58.6014671  20.1373496  32.6236776
  58.1869296  20.8615821  31.5361473  58.2163745  20.1928714  31.9434408
  59.7896539  20.7301262  36.4533679  59.3982104  20.0834609  36.8889457
  59.9582402  21.3212697  37.0727934  59.7567449  20.7215530  36.6096385
  73.8642988  28.7338339  32.2170912  73.9226112  29.1824988  32.9630889
  73.2309456  29.1437152  31.7800992  73.7794283  28.8612073  32.2623461
  67.5042083  34.3541881  28.6525659  67.3061771  34.8432695  27.9581870
  66.8829794  34.5583122  29.2309792  67.3829647  34.4558419  28.6348882
  61.5650061  26.1226778  22.9935903  62.3092106  26.5101054  23.2318853
  61.7110757  25.2784203  23.1576391  61.6960646  26.0557250  23.0529873
  63.4829637  17.9177036  28.0267764  62.6365682  18.0899844  27.9009114
  63.4800769  17.1126380  28.3633593  63.3576786  17.8238065  28.0578891
  64.5527937  21.6952251  28.8929822  64.0787891  21.1694013  29.4035133
  64.9246073  21.1481724  28.3244684  64.5377826  21.5368247  28.8844969
  54.9300967  23.6923758  34.2613368  55.7926580  23.5919467  34.1750698
  54.5992750  23.1118467  33.6998940  55.0086163  23.5915384  34.1658774
  70.8164668  26.7554626  30.3036603  70.5762890  25.9161042  30.3079029
  71.2956675  26.8354793  31.0277376  70.8516851  26.6436026  30.4111405
  66.4811437  22.5888805  21.9555576  65.9534455  22.6717549  21.2661285
  66.9407145  23.3306677  21.9520221  66.4713287  22.7109468  21.8530271
  72.8169855  23.5356084  28.2565862  72.5779624  23.4951918  27.4186646
  72.9803756  24.3827236  28.3831583  72.8060158  23.6548169  28.1519344
  69.4215885  27.9206033  34.1870907  70.1450084  27.4678559  34.0081927
  69.1565847  28.2010699  33.4043235  69.4897158  27.8957002  34.0449622
  58.2902753  22.5166207  30.9223786  57.6655823  22.5284599  30.3149739
  57.9548348  22.9926382  31.5715026  58.1488245  22.5884724  30.9280355
  58.4744502  20.8591325  16.9796471  58.1257306  21.5111050  17.4428021
  57.9940948  20.8448438  16.2520342  58.3514746  20.9534379  16.9407562
  55.0028429  30.5766667  32.3627550  54.4728353  29.8859106  32.4122525
  55.2753522  30.5676852  31.5340259  54.9653151  30.4733798  32.2474966
  66.0348519  31.1592369  21.0865233  66.7582718  31.6250482  20.9429806
  65.5949110  31.2265979  20.3362830  66.0764211  31.2376206  20.9550014
  65.2034674  28.0189911  32.3365922  64.5891667  27.4747962  32.6314557
  65.7201959  27.5054148  31.8571738  65.1890337  27.8626320  32.3090150
  64.4430971  29.0894181  30.0710221  64.0158579  28.4643900  29.6375656
  64.4355916  28.8069103  30.8969228  64.3790113  28.9546962  30.1290048
  57.5593498  24.1259354  33.1398655  57.7186985  23.3702678  33.5450377
  57.3786392  24.6750294  33.7939392  57.5558857  24.0953168  33.2961361
  65.5013801  16.2920590  33.6949444  65.0054363  16.4884264  33.0041011
  66.2582863  16.6913258  33.5238246  65.5400626  16.3798324  33.5669581
  62.7716681  19.9662936  30.2852755  62.7959168  19.4323048  29.5965535
  63.0228155  19.4580245  30.9478345  62.8126600  19.8123840  30.2817399
  50.2824271  27.2494431  29.7195899  50.1767720  27.2041275  28.8547983
  49.5324491  27.5948211  30.0010184  50.1559874  27.2935339  29.6333229
  59.0518003  18.6933754  29.6658499  59.0916375  19.1942961  30.3793206
  58.2267668  18.7844148  29.3964422  58.9357529  18.7815570  29.7309037
  61.2347616  28.2594494  37.7678794  60.3843247  28.3966208  37.9036439
  61.3975744  27.5258272  38.2126495  61.1331480  28.1708595  37.8534393
  60.4732367  25.2094264  31.9632398  59.6424296  25.3768082  31.7567646
  60.4183884  24.8330215  32.7481283  60.3421782  25.1783995  32.0480926
  58.2816150  18.7003157  37.5988809  58.9068853  18.1565290  37.8718241
  57.8266630  18.2198074  37.0296599  58.3064410  18.5492638  37.5550403
  58.8468410  23.4849855  22.4922516  58.9871372  23.9822320  23.1951157
  59.3450943  22.7836150  22.6336729  58.9409491  23.4551834  22.6174095
  58.8768633  24.3516966  19.8215093  59.5113712  24.9477391  19.7564554
  58.9594244  24.0520424  20.6360963  58.9825184  24.3957875  19.9318179
  71.8551199  26.8832444  32.6901457  72.4469039  27.5229695  32.7219655
  72.2910193  26.1855481  32.9793524  72.0069630  26.8750794  32.7382289
  60.4547616  20.2830942  19.7960535  60.7763457  19.8034024  19.1419797
  60.7174559  21.0930588  19.6051346  60.5413641  20.3320840  19.6716027
  63.6844588  31.3049816  33.3159351  63.1769680  31.8585663  33.7599981
  63.3871235  31.3658106  32.4978125  63.5649473  31.3956127  33.2607807
  65.8506771  19.6703136  32.1584014  66.2761842  19.2175662  31.5467540
  65.2363764  19.1163207  32.4348801  65.8235416  19.5217112  32.1089039
  55.3821621  26.5484807  23.0904639  55.8913850  27.1449315  23.4715944
  55.8555893  26.2810781  22.4081058  55.5264996  26.5970623  23.0459161
  66.2952369  35.2213074  21.2463294  65.5781678  35.0473936  20.7810532
  66.9459106  34.9865646  20.7138780  66.2854219  35.1608866  21.0992512
  64.2900994  16.1418236  25.5674591  63.6469311  15.9915882  26.1359729
  63.9500401  15.8960581  24.8023695  64.1446071  16.0830358  25.5377606
  68.8800340  24.0977662  24.9904599  68.2091530  24.6407365  24.8617665
  69.5740090  24.5672518  24.7486294  68.8829207  24.2475934  24.9360127
  62.9287074  36.2374374  30.2216358  62.7052728  35.4793204  30.5900384
  62.4396917  36.2672396  29.4996797  62.8230523  36.1296599  30.1693099
  69.0428467  20.5533546  27.8994972  69.3956078  20.1263269  28.5740771
  68.1843269  20.4684390  28.0296049  68.9677912  20.4778287  28.0189983
  57.7412152  23.1841066  25.9577819  57.0224142  23.6005198  26.2250683
  58.1124515  23.7495305  25.4069457  57.6904084  23.3290347  25.9160626
  67.0411733  23.8168915  31.8479815  67.0209661  23.6352210  32.7014594
  67.0890934  24.6880933  31.8239398  67.0446374  23.9185453  31.9703109
  64.9858063  30.4056107  37.7728291  64.9453918  29.7605784  37.1873447
  65.7981381  30.3492724  38.0853703  65.1001217  30.3015074  37.7325240
  61.5765531  36.4574833  27.6753442  61.1625929  35.7948963  27.2857284
  62.2612905  36.6052691  27.1549136  61.6163902  36.3815491  27.5409939
  64.9430825  35.6164918  28.4277059  64.5447108  35.7267188  27.6597879
  64.3282044  35.8246984  29.0103619  64.7929714  35.6638486  28.4008358
  63.5158727  22.2239066  21.2951198  62.9223566  22.5456062  20.7435765
  63.5534005  21.3780161  21.0872305  63.4333116  22.1463394  21.1833970
  70.4752528  15.6751958  28.8279285  69.9683392  14.9681097  28.7600462
  71.2719961  15.3445147  28.9580362  70.5179767  15.5225109  28.8378280
  66.3916543  22.1818570  24.7252949  66.1630236  22.2051272  23.8831307
  66.6514620  21.3576037  24.8447959  66.3962731  22.0634650  24.6178146
  60.6735772  24.0353043  34.3278049  60.1614675  23.4274226  34.6863080
  60.5015268  24.7509636  34.7952025  60.5725409  24.0516342  34.4494273
  55.5201487  22.4790619  36.9780411  55.3504077  23.1391993  36.4328617
  55.0767436  22.6897180  37.6992900  55.4300820  22.6076601  37.0042040
  59.4461306  20.7195116  26.0207144  59.9218672  21.0812196  25.3857325
  58.9449906  21.3751584  26.3007287  59.4426665  20.8689305  25.9683885
  72.6772667  30.1916885  21.8120149  73.0606273  30.9408241  22.0418246
  71.8816781  30.4382704  21.5532138  72.6166450  30.3386578  21.8077723
  64.5504842  21.9577288  36.7680304  65.1076272  21.7291097  36.1358770
  64.2265907  22.7182953  36.4915517  64.5851252  22.0361125  36.6336802
  52.4203551  25.3837484  32.2368901  51.8730270  24.7138130  32.3549769
  53.2095929  25.0167332  32.3012368  52.4555735  25.2302470  32.2637601
  62.2687959  25.0444941  37.7332312  63.0199286  25.3596618  38.0471866
  62.4610536  24.8424112  36.9066233  62.4079374  25.0612323  37.6575707
  61.4887959  22.8636316  19.3880528  61.8686924  22.8815945  18.6031643
  60.7480555  23.3090305  19.2671376  61.4356797  22.9318091  19.2544097
  69.1173250  21.1718507  24.9756107  69.1167476  21.0167164  25.8340383
  68.9129430  22.0181495  24.9197493  69.0873027  21.2739128  25.0944046
  51.1790521  24.5958292  29.3914924  51.0012282  24.1434901  30.1169839
  50.8909543  25.3984453  29.5753401  51.1103474  24.6480850  29.5258426
  66.8414102  25.8516009  28.6292314  67.3367767  25.1339004  28.5896334
  66.0313877  25.5486807  28.5146801  66.7957995  25.7013656  28.6066040
  62.2872713  29.7013823  20.7789318  61.4784036  29.3780496  20.7322628
  62.7947622  28.9947045  20.7117567  62.2422380  29.5495139  20.7619613
  52.9162990  27.1286016  26.5036683  52.0508510  27.1171706  26.3919454
  53.0161806  26.9416239  27.3507822  52.8037157  27.0992077  26.6125627
  68.9065921  28.6019697  31.3169443  69.3320992  28.0794119  30.7639868
  68.5422840  29.2000534  30.7958066  68.9152523  28.6129924  31.1578452
  58.5420000  36.8983914  30.0766788  58.8566559  37.7120303  30.0844570
  58.9513414  36.5134133  30.7448947  58.6488098  36.9612617  30.1770880
  65.4944520  32.3153961  27.6470600  65.9655698  33.0294224  27.8160585
  65.8304698  31.7152711  28.1830470  65.6139635  32.3325425  27.7502976
  67.5821505  33.9255274  39.8262672  67.6918470  33.1363835  40.1819419
  67.9112401  33.8361211  39.0237010  67.6473910  33.7961127  39.7605063
  62.4114015  17.0881432  34.6028695  62.5441920  16.2912425  34.9309670
  62.7959168  17.6147835  35.1826971  62.4870344  17.0481348  34.7372198
  66.1318466  32.1071895  34.4098293  65.5839412  31.4829779  34.1418358
  66.5931495  32.2966167  33.6942372  66.1185676  32.0430945  34.2648724
  65.4846370  14.0111758  31.2009788  64.6792334  13.9009487  31.5177626
  65.3553106  14.1124213  30.3439654  65.3466503  14.0095428  31.1217829
  68.9412331  20.1757250  31.7949485  68.3575319  20.6766456  31.3827052
  69.2616625  19.6686806  31.1613808  68.9025506  20.1749085  31.6407992
  61.4807130  19.0897844  22.0708160  62.3022824  19.2596157  21.8289855
  61.0176781  19.2445105  21.3474457  61.5338292  19.1379577  21.9279804
  60.0702462  17.0840607  32.8506589  60.6146875  16.7431733  33.4410930
  60.1239397  17.9426068  32.9927873  60.1591581  17.1595866  32.9588462
  55.8833020  30.8457023  29.7245397  56.4877878  30.8052857  29.0959217
  55.6760333  31.6928175  29.7549452  55.9421918  30.9645025  29.6361513
  65.6976793  33.1122968  30.9407634  66.5175166  32.9685934  31.2023929
  65.4170870  33.7369167  31.4824072  65.7773536  33.1833320  31.0595573
  51.1184303  29.8291640  29.5944320  51.0208581  29.0187912  29.9034376
  51.9013172  29.8083434  29.2090588  51.2200439  29.7058730  29.5831183
  75.3690128  39.8563471  28.6603441  74.5128023  40.0171969  28.7112558
  75.4157782  38.9855535  28.6808502  75.2489239  39.7514272  28.6709507
  69.7531268  49.3926188  24.4240672  69.0014167  49.0141727  24.1956717
  70.2017279  49.4244622  23.6759483  69.7080934  49.3411796  24.2798174
  78.6783844  46.1249996  38.2663897  79.3850612  45.6302027  38.3950831
  78.8671780  46.5659078  37.5366555  78.8111750  46.1168347  38.1772942
  75.2056227  49.8151558  19.8526219  74.8707596  50.4928480  19.4170442
  75.7183098  49.4256869  19.2643091  75.2321809  49.8576136  19.7013011
  74.7460519  51.7665827  25.7937331  75.1299898  52.3352725  25.2542106
  74.6819660  51.0415337  25.3143147  74.7933946  51.7441290  25.6431194
  78.2141949  41.9155515  31.3035092  78.7597909  42.5940601  31.3629062
  78.1558825  41.7742975  30.4436674  78.2857863  41.9947516  31.1847153
  71.3316024  49.4044581  26.6903445  71.4326387  48.5944935  27.0000573
  70.7357769  49.3101527  26.0603123  71.2588562  49.2709609  26.6429683
  79.9907017  43.3440122  22.1768820  79.8746543  44.0947808  22.6060958
  80.7862904  43.0864075  22.4264907  80.0911607  43.4174969  22.2772912
  71.1716763  54.3222170  28.0918301  71.8154219  54.7635334  28.4814459
  71.4973019  53.5175596  28.0048560  71.3148592  54.2687365  28.1363778
  64.5281068  45.4264867  26.3155778  64.2931252  44.5932520  26.2088047
  64.6666709  45.7069533  25.5016979  64.5136730  45.3448371  26.1798133
  66.8271155  37.5950598  29.2140086  66.2076187  37.0043245  29.0450101
  66.7255019  38.1862033  28.5804409  66.7208831  37.5954680  29.0945076
  71.8737343  47.3334145  23.4638163  72.1953184  47.8739352  22.8599471
  72.5209440  46.7630916  23.5960452  72.0163398  47.3293320  23.3945198
  73.9239051  39.3350140  23.5472549  74.6219216  39.5138267  24.0394013
  74.2391384  38.8120479  22.9242939  74.0734388  39.2843912  23.5274559
  66.5540288  41.1402879  31.4583655  66.4298985  41.7265325  32.0933474
  67.2058573  40.6463075  31.7595930  66.6313938  41.1541684  31.5969584
  74.1126986  45.7220585  23.5352341  74.5520622  45.1137685  23.9807114
  73.9631649  45.3427958  22.7637806  74.1548452  45.5759056  23.4871508
  71.5798629  44.3164596  30.7371166  72.2247632  43.8237040  30.4182115
  71.8200406  44.4589383  31.5637245  71.7109215  44.2642039  30.8120699
  74.1184721  47.1619502  30.3878059  74.4007964  46.3670908  30.1664815
  74.8470881  47.6400090  30.4083120  74.2674285  47.1154099  30.3581074
  72.0965915  34.7042536  27.6293824  71.7669245  35.1553680  26.9597523
  71.4210916  34.6258700  28.1766830  71.9476351  34.7593671  27.6117047
  77.7136323  44.0747766  20.4883110  77.6287618  44.9308733  20.6332679
  78.2020706  43.7992090  21.1565269  77.7725220  44.1605087  20.6085192
  79.3042322  30.6928059  25.8743435  78.9895763  31.3831538  26.3063857
  78.7869264  30.6372841  25.1728935  79.1806793  30.7862948  25.8340384
  78.6454756  40.6932560  21.9880845  78.1166228  40.9092194  22.6478151
  79.1679776  41.3868699  21.9081814  78.6443209  40.8275697  22.0736444
  70.5354364  44.5895777  20.7888313  69.9511579  45.0945808  21.1954177
  70.1324459  44.3638164  20.0484905  70.3893668  44.6304025  20.7393338
  66.0898393  50.3050538  27.5911985  65.6065971  51.0301028  27.5671568
  66.9021711  50.6026668  27.7022142  66.1389140  50.4552892  27.6039264
  72.1612547  49.0982719  30.1961799  71.6439488  48.7390134  29.5923107
  72.8586938  48.5744893  30.2067865  72.1878128  48.9680407  30.1092058
  75.8176139  49.5477533  36.1577972  75.9059485  49.3603673  37.0056182
  76.2465851  48.9014962  35.7582819  75.8938241  49.4240540  36.2249724
  73.3846598  48.8308693  35.1395634  72.8217433  48.4181303  35.6635296
  74.1467622  48.7561598  35.5588778  73.4141047  48.7586093  35.2788635
  74.9931578  40.8361429  19.2657234  75.2327582  41.0439413  18.4532577
  75.3147419  40.0318938  19.3746178  75.0768736  40.7475530  19.1617787
  70.3021869  32.7654825  23.1116772  71.0567837  33.1333142  22.8733822
  70.1249403  33.1394379  23.8795951  70.3876347  32.8753013  23.1901660
  69.9921496  41.0582301  36.8712680  70.1642000  40.9488195  37.7197961
  70.5290854  41.7036706  36.6343872  70.0966500  41.1374302  36.9617776
  68.6578933  35.1725144  19.8094885  68.4754507  35.3897024  18.9835877
  69.5204546  35.2864156  19.8653499  68.7583523  35.2215042  19.6949372
  68.2693365  47.0113066  27.2517873  69.1082265  47.2435999  27.2991634
  68.3005134  46.1417377  27.1824908  68.3975083  46.9170012  27.2482517
  68.8946068  47.4313941  31.5531178  69.4344293  47.2885072  32.2234550
  68.2116015  47.8310692  31.9215204  68.8738222  47.4693612  31.7065600
  74.3378653  32.1751554  22.8443908  75.0664813  31.9967509  22.3982065
  74.4273545  33.0169634  23.0551087  74.4585315  32.2735433  22.8097426
  78.3186953  43.1104942  26.7476202  79.0744468  43.5436456  26.7865111
  78.4249278  42.4609711  27.3210838  78.4457124  43.0782426  26.8374228
  81.3567124  46.9378219  27.4978605  80.9202356  46.9414961  28.2537577
  81.0230040  47.6183718  27.0658183  81.2429744  47.0390675  27.5459438
  75.9296198  48.9786552  38.8221756  76.7136615  49.0917400  39.1877498
  75.7292792  48.1527689  39.0180442  76.0162223  48.8733271  38.9056142
  81.2764607  33.9792047  29.7408033  81.9190516  34.0490151  30.3269949
  81.5287628  33.3121270  29.2387575  81.4086739  33.8918395  29.7535313
  68.2040960  38.4499316  18.3217358  67.4899138  38.1637496  18.7339790
  68.6884929  38.7895942  18.9623745  68.1700324  38.4580966  18.4772993
  69.0481820  37.1892610  34.3532607  68.3553617  36.7189590  34.5993339
  69.6642147  36.9630915  34.9274314  69.0366350  37.0859742  34.4741760
  76.0866591  50.8896654  32.4688211  75.2881837  50.6496154  32.7262080
  76.5352603  50.9411047  33.2155259  76.0341203  50.8619045  32.6173136
  75.3788278  46.9529270  18.6979166  75.7939427  46.6214294  18.0063662
  74.5480208  46.7198172  18.5699303  75.3176287  46.8700526  18.5770013
  64.7076627  44.4373011  28.9877344  64.5252200  44.4119897  28.1349636
  65.4426296  44.9071949  29.0266253  64.7890691  44.5034373  28.8675262
  80.7776301  44.6724521  26.1310231  81.0131890  44.8169720  25.3037082
  80.9265865  45.4366929  26.5241745  80.8342105  44.8063576  26.0673835
  67.7722379  41.1558014  35.4959452  68.4962351  41.1411045  35.9824347
  67.8738515  41.8653369  34.9981421  67.8940588  41.2582717  35.4938239
  75.1467328  44.6357099  40.3608399  74.3540309  44.9500611  40.5461019
  75.2616255  44.8508567  39.5229184  75.0462739  44.7140935  40.2646734
  77.8198647  41.3591090  24.6503415  77.9145502  42.0980384  25.1043041
  77.1957491  40.9308565  25.0837980  77.7407677  41.4052410  24.7811563
  76.0751121  44.5377302  35.2993696  76.6489983  43.9004547  35.4542260
  75.9965925  44.5381385  34.4303354  76.1484356  44.4442414  35.1940107
  64.6747537  41.3166512  29.1376410  65.2521040  41.1802963  29.7768656
  63.9761599  40.8602296  29.3921995  64.6568559  41.2288778  29.2698700
  78.0721668  43.2039830  17.8840367  77.9901831  43.2742017  18.7495354
  78.7101389  43.7669574  17.6924108  78.1541506  43.2978801  17.9830317
  71.4314840  42.9700568  27.3514894  71.1734084  42.1372302  27.3246193
  71.4863322  43.1958181  26.5107394  71.4014617  42.8798339  27.2235030
  76.5115890  35.0729018  27.4518986  75.8072216  34.5838204  27.6102905
  76.5600864  35.0851493  26.5807431  76.4145941  35.0018666  27.3458326
  70.4049552  40.5238330  27.8379788  69.8299143  40.6830498  28.4743749
  70.0285228  39.8873739  27.3748239  70.2652364  40.4536143  27.8634347
  74.0722840  38.9961679  32.6972167  73.6837273  38.5715897  32.0424358
  73.4077539  39.2443829  33.2049193  73.9169768  38.9700400  32.6760035
  60.1506371  40.1678405  25.8524229  60.2366622  39.7910273  26.6337759
  60.7782168  39.7938850  25.3744187  60.2562922  40.0563887  25.8969706
  77.8949202  32.6936308  30.2096151  78.2759714  32.0114479  30.5964025
  77.0912486  32.4045910  30.0271815  77.8325664  32.5503357  30.2400207
  75.1761779  43.2260284  20.8948974  75.9902417  43.5175177  20.7831745
  75.1120920  42.5720146  20.3207267  75.2864518  43.1725479  20.7937811
  81.3971269  45.9086280  35.3078549  81.1609906  45.0774345  35.1890610
  82.0414498  45.8571887  35.8933394  81.4565940  45.7783968  35.3764443
  71.0469687  46.6981801  26.0221286  71.6843634  46.4593549  26.5673079
  71.4724758  46.9018960  25.2874446  71.2045853  46.6932812  25.9938443
  71.6872502  41.9184091  20.3596175  72.0717655  41.6991798  21.1112720
  71.4384122  42.7447037  20.4897252  71.7074575  42.0082237  20.4897252
  71.8541042  35.1990506  40.0758759  71.5394483  35.9690069  39.8128322
  71.5330975  34.6360762  39.4910986  71.7599961  35.2300775  39.9500109
  82.4207689  45.6930729  31.3706844  82.1153506  46.4258786  31.7320160
  81.7013905  45.2868658  31.0899630  82.2695032  45.7412462  31.3819981
  73.4291159  47.1754224  27.7015072  73.5030167  47.0129396  28.5556922
  74.2460665  47.3644414  27.4575554  73.5607517  47.1790966  27.7913098
  67.1896916  47.5212087  24.7309516  66.3635033  47.7673824  24.6043794
  67.2508907  47.4424168  25.5971574  67.0771083  47.5457036  24.8398460
  69.4072939  33.5881028  25.6904956  68.5395365  33.6603627  25.7562565
  69.6948144  34.3903107  25.8792931  69.3212687  33.7175175  25.7279722
  78.5305828  33.7358887  34.0216278  79.2759420  33.5468698  33.6079703
  78.1143133  34.2617125  33.4630134  78.5790802  33.7861033  33.8780851
  71.9695745  50.1388967  22.4328546  72.2594043  49.7477948  21.7087772
  72.6999225  50.3205672  22.8733821  72.1202629  50.1082781  22.3911353
  72.5590490  44.9406713  33.5181676  72.0602183  45.6522481  33.5966564
  73.3690714  45.2607380  33.4799838  72.6046596  45.0933562  33.5238245
  69.9101660  52.1156349  25.4988695  69.6901956  51.8253704  26.2915362
  69.6896182  51.4571305  24.9706608  69.8449254  51.9756058  25.5377604
  68.8218607  44.2029666  27.7644397  68.5331856  43.5767137  28.2990124
  69.6901955  44.1449953  27.8309077  68.9078859  44.1017210  27.8535351
  79.6096505  39.3464449  28.0826379  79.2661271  38.6254785  28.4333628
  79.7089548  39.1378301  27.2404737  79.5738548  39.2088653  28.0098059
  72.0769616  53.4885739  24.2819388  72.7293674  52.9562182  24.5110414
  71.3795225  53.1354392  24.6687262  72.0700334  53.3575262  24.3731555
  69.0250881  45.8424917  23.6886762  69.7796849  46.2237956  23.9022224
  68.4321493  46.2936061  24.1433458  69.0487594  45.9653744  23.7869640
  80.0709534  45.8090153  23.6250367  80.6367567  46.4683363  23.5408910
  79.4237438  46.1539852  24.0966769  80.0588291  45.9572095  23.6823123
  71.4857548  37.7987757  38.8143974  70.6757323  38.1045537  38.7033817
  71.9632234  38.5193340  38.9296558  71.4361027  37.9502359  38.8151045
  70.3449107  47.0133478  29.0626877  69.8229861  47.1533770  29.7478742
  70.7323128  46.2544143  29.2528995  70.3252808  46.9219002  29.1927954
  67.3340291  37.0639287  23.1321832  67.0465087  36.6940558  22.3953779
  68.0210760  37.5334142  22.8705537  67.3929189  37.0786256  22.9836908
  76.5416112  48.7528938  23.0487446  76.3002788  48.0196798  22.6414511
  76.7217445  49.3015795  22.3953779  76.5323736  48.7251329  22.8917669
  71.7715433  44.0437497  24.4608368  71.5758216  44.6512232  23.8668671
  71.9949779  43.3505441  23.9800042  71.7750074  44.0315023  24.3024449
  70.1693963  40.9292235  24.5789237  70.8916615  41.0933393  24.1193043
  69.6901956  41.6501900  24.4728576  70.2057694  41.0590465  24.4954851
  78.1287471  37.2656034  29.9585922  77.2898571  37.2917313  29.7224185
  78.1991838  37.9126770  30.5391268  78.0155864  37.3652160  30.0095039
  67.8201580  43.3350308  33.6843377  68.3322677  43.6134561  33.0352136
  67.5337922  44.0739602  34.0506190  67.8536443  43.4852661  33.6433255
  76.5756749  34.1641411  24.6913538  77.2783102  33.9649159  24.2133496
  76.3100938  33.3917354  24.9982381  76.6403381  34.0204377  24.6658979
  82.0044994  42.4724021  27.2447163  81.9178969  42.6279447  28.0981942
  81.5495474  43.1162096  26.8706568  81.9248251  42.5899776  27.3154270
  64.9068486  37.8420500  23.9807113  65.0084622  38.6446661  24.3088089
  65.7024373  37.6407835  23.6830194  65.0396392  37.9306398  23.9842468
  71.3385305  35.4276696  33.7444418  71.1468502  35.4431831  34.5943842
  72.1883901  35.6240371  33.7211073  71.4361027  35.4591048  33.8667713
  65.7232218  37.9567678  31.7228235  65.5817710  37.1051618  31.8472743
  66.0072781  37.9996338  30.8990441  65.7440064  37.8367428  31.6195859
  75.8770810  39.7934768  25.8672723  75.6305525  39.7130519  26.7009512
  76.2055933  39.0088236  25.6735250  75.8892054  39.6661033  25.9620246
  79.7718859  46.5018127  29.6559504  79.6333219  47.1999173  30.1608247
  78.9918857  46.3466784  29.2995686  79.6362086  46.5818294  29.6785778
  78.1096944  42.8014503  35.9081886  78.1044983  41.9294319  35.9124312
  78.8157938  43.0002672  35.4351342  78.2141948  42.7018377  35.8388921
  71.8367838  42.5291487  35.2795706  71.9811213  43.1092695  34.6438816
  72.1843486  42.9067783  35.9845561  71.9095299  42.6712191  35.2894701
  74.0087755  41.7281655  33.0620838  73.2611069  41.9212669  32.6569116
  74.1629280  40.9026875  32.8244959  73.9210183  41.6346766  32.9666243
  70.9095593  50.7194258  32.1456733  71.0585156  50.1597174  31.4930137
  71.6895595  50.7986260  32.5289252  71.0469686  50.6479824  32.1053682
  81.2672232  45.8596381  20.4176003  80.8879041  45.0733519  20.4105293
  80.6038478  46.4083238  20.2747648  81.1130707  45.8241205  20.3956800
  73.4348893  50.8908901  33.4241224  73.3592564  50.2217712  33.9792012
  73.3638752  51.5926689  33.9381890  73.4129500  50.8953809  33.5818072
  74.2489532  35.6232206  33.9516241  74.7062146  36.3556180  34.0789034
  74.3245861  35.1998671  34.7103497  74.3280502  35.6689444  34.0817318
  66.4922523  35.8698025  35.0405685  65.9564713  35.2578384  35.3566452
  66.5540288  36.4446161  35.6939352  66.4218156  35.8644953  35.1841112
  78.7216858  28.8022081  27.8210084  78.8400426  29.2598544  27.0877387
  78.5479034  27.9967342  27.5346302  78.7136029  28.7515853  27.6711018
  74.0919140  49.4109900  24.2564830  74.8569031  49.1419544  23.9347494
  73.9897230  48.9259911  24.9734892  74.1900636  49.2999465  24.3144657
  72.1271910  37.6134310  30.7958065  71.3367985  37.4325770  31.1175401
  72.5232533  36.8361262  30.7788360  72.0688786  37.4721771  30.8410614
  76.6137801  46.4422084  16.2364779  77.3810786  46.5022209  15.8270631
  76.1669110  45.8702525  15.7521098  76.6611228  46.3658660  16.1042489
  77.5115596  45.2476740  28.5217511  76.8360598  45.0161972  29.0230898
  77.5207972  44.6397923  27.8959616  77.4134101  45.1235665  28.5033664
  74.6409740  40.0894569  35.2781564  74.5768881  40.9504525  35.1501701
  74.7806928  39.7726562  34.4777116  74.6525210  40.1694735  35.1409777
  79.5132331  48.1041872  20.7527689  79.5952168  48.9108858  20.4289140
  79.9982073  48.1237831  21.4768463  79.5969489  48.2262535  20.8114588
  73.3228834  42.7826708  29.4197767  72.8991083  42.9831207  28.6836786
  73.1473689  41.9355556  29.5322067  73.2339715  42.6875490  29.3271457
  72.8240528  54.2977221  31.8819224  73.3136458  53.5988010  31.6994889
  72.2524760  54.0001091  32.4695282  72.8125058  54.1503445  31.9420265
  68.6111279  43.2778760  24.8525740  68.7675898  43.2125562  25.7081732
  68.9511872  44.0527312  24.6404419  68.6844514  43.3827958  24.9480334
  75.1490424  42.6536643  23.7219103  75.6905969  42.1507024  24.1857724
  75.4636983  42.6001838  22.9108588  75.2754821  42.5716064  23.6702915
  79.0207531  46.8639290  40.8346015  79.8342396  46.5924439  40.9951148
  78.8602498  46.5646830  40.0306211  79.1177480  46.7794216  40.7391421
  73.3176873  48.0453995  21.0059131  73.3869694  47.1868533  21.1452131
  74.0965329  48.2625876  20.6778156  73.4429724  47.9506859  20.9776288
  76.2979693  37.5472948  33.7741403  76.5121663  36.9083862  33.2204757
  75.6813592  37.9918771  33.3449265  76.2385022  37.5183091  33.6291834
  77.7084361  50.4691696  25.2195624  77.3164153  50.1658411  24.5018490
  77.8637433  51.3060786  25.0300578  77.6737951  50.5475533  25.0852121
  65.1845541  40.4613710  25.1686507  65.5644505  40.8798255  24.5046774
  64.6100905  41.0427166  25.4755350  65.1556866  40.6091569  25.1163248
  78.4618781  39.1562013  34.7124710  77.6495463  38.8487903  34.7937883
  78.9208716  38.6761013  35.2767423  78.4099166  39.0398505  34.8079305
  77.8724036  47.0341685  25.1601655  77.5138691  47.2056328  25.9365687
  77.3862747  47.4954890  24.6029653  77.7482733  47.1280656  25.1926924
  75.6894422  30.6572883  28.7628746  74.8187980  30.6311604  28.7162056
  75.9434763  30.4850075  27.9454592  75.5987982  30.6283027  28.6348883
  72.6612401  42.7140850  17.7001889  72.9504926  43.4905733  17.9745463
  72.7484200  42.2029582  18.4016389  72.7166657  42.7532769  17.8444387
  75.5572289  40.5622084  39.4953413  76.0271920  41.1864201  39.8821287
  75.6034169  39.8939060  40.0546627  75.6340164  40.5556765  39.6353484
  72.7143562  32.6679112  30.2202217  72.1982051  31.9759303  30.3453796
  72.1537491  33.3349889  30.1664815  72.5550076  32.6642369  30.2308283
  74.7835796  33.2072072  32.0495069  74.3967549  33.2321103  32.8308599
  74.2968733  32.6413750  31.5969586  74.6548305  33.1267823  32.0982973
  79.0328775  47.9245581  36.1068856  79.6708496  47.4305776  35.7731312
  78.3902867  47.8522981  35.5221083  79.0323002  47.8404589  35.9711211
  80.7585775  39.7734727  30.6734771  80.3313383  39.6861075  29.9182871
  80.1211828  39.8812502  31.2589615  80.6015383  39.7767387  30.6480213
  74.4492937  30.0939057  34.3405329  75.0786055  30.6299357  34.0626399
  74.6178800  30.0016416  35.1918895  74.5670732  30.1600419  34.4253857
  74.2506852  34.8810252  36.6131741  75.0780282  34.6095401  36.6690355
  74.2714698  35.6771094  36.9695559  74.3759702  34.9590006  36.6746924
  79.0883032  48.6165389  32.7474212  79.8775410  48.2654454  32.8676294
  79.2626630  49.4301777  32.4850846  79.2303313  48.6851246  32.7262080
  68.8276342  42.0274115  29.8002001  67.9864349  41.9277989  30.0080895
  69.0366350  42.7969595  30.1516322  68.7341035  42.1266158  29.8829316
  66.3051909  39.6493652  27.6286752  65.9108607  39.7236663  26.8536862
  65.7492026  40.0351598  28.1795114  66.1654721  39.7175426  27.5954412
  77.9416856  32.6274946  27.3090631  78.1466449  32.5597254  28.1547628
  77.6143280  33.4333767  27.2411808  77.9232104  32.7360886  27.4250286
  72.6393007  39.9555514  29.0499599  72.3356145  39.4011502  29.6510006
  71.9372428  40.1347724  28.5627633  72.4909217  39.9000296  29.0669304
  71.6959104  37.2656034  23.6144301  71.9718838  36.5474946  23.2021868
  72.2957773  37.8640954  23.4065407  71.8252369  37.2476404  23.5225062
  70.7011358  47.1705235  33.7571697  70.5931713  47.1807297  34.6233755
  70.9107140  47.9960015  33.5676650  70.7161469  47.2946309  33.8575788
  81.1950544  33.1806710  26.7893396  80.5824857  33.6677112  27.1747128
  81.2914719  32.5050201  27.3331048  81.1188441  33.1525019  26.9272255
  75.1969625  34.9369551  21.8890896  75.6513371  35.1080111  22.6138740
  75.6709670  34.3237662  21.4888671  75.3337945  34.8720436  21.9364657
  68.7185150  44.4217877  31.2193634  68.1273083  45.0627375  31.1896649
  69.4806174  44.8455494  31.1924934  68.7433411  44.5793715  31.2108781
  69.1145773  35.5819875  31.8861652  69.5747254  35.6558804  32.6236776
  69.1601880  36.3801129  31.5361473  69.1896328  35.7114022  31.9434408
  70.7629123  36.2486570  36.4533679  70.3714688  35.6019917  36.8889457
  70.9314985  36.8398005  37.0727934  70.7300033  36.2400838  36.6096385
  78.4774666  49.8727189  28.6525659  78.2794355  50.3618003  27.9581870
  77.8562377  50.0768430  29.2309792  78.3562231  49.9743727  28.6348882
  72.5382645  41.6412085  22.9935903  73.2824690  42.0286362  23.2318853
  72.6843341  40.7969511  23.1576391  72.6693230  41.5742558  23.0529873
  74.4562220  33.4362344  28.0267764  73.6098265  33.6085152  27.9009114
  74.4533353  32.6311688  28.3633593  74.3309370  33.3423373  28.0578891
  75.5260521  37.2137559  28.8929822  75.0520475  36.6879321  29.4035133
  75.8978656  36.6667032  28.3244684  75.5110409  37.0553555  28.8844969
  81.7897251  42.2739934  30.3036603  81.5495474  41.4346350  30.3079029
  82.2689258  42.3540101  31.0277376  81.8249435  42.1621334  30.4111405
  77.4544020  38.1074113  21.9555576  76.9267039  38.1902857  21.2661285
  77.9139728  38.8491985  21.9520221  77.4445871  38.2294776  21.8530271
  80.3948468  43.4391341  34.1870907  81.1182667  42.9863867  34.0081927
  80.1298431  43.7196007  33.4043235  80.4629742  43.4142309  34.0449622
  69.2635337  38.0351514  30.9223786  68.6388407  38.0469906  30.3149739
  68.9280931  38.5111690  31.5715026  69.1220828  38.1070031  30.9280355
  69.4477085  36.3776633  16.9796471  69.0989890  37.0296358  17.4428021
  68.9673531  36.3633746  16.2520342  69.3247329  36.4719686  16.9407562
  77.0081103  46.6777677  21.0865233  77.7315302  47.1435790  20.9429806
  76.5681694  46.7451287  20.3362830  77.0496795  46.7561514  20.9550014
  76.1767258  43.5375219  32.3365922  75.5624251  42.9933269  32.6314557
  76.6934543  43.0239456  31.8571738  76.1622920  43.3811628  32.3090150
  75.4163555  44.6079489  30.0710221  74.9891163  43.9829208  29.6375656
  75.4088499  44.3254411  30.8969228  75.3522696  44.4732270  30.1290048
  68.5326082  39.6444662  33.1398655  68.6919569  38.8887986  33.5450377
  68.3518976  40.1935602  33.7939392  68.5291441  39.6138476  33.2961361
  76.4746385  31.8105898  33.6949444  75.9786946  32.0069572  33.0041011
  77.2315447  32.2098566  33.5238246  76.5133210  31.8983632  33.5669581
  73.7449265  35.4848244  30.2852755  73.7691752  34.9508356  29.5965535
  73.9960738  34.9765553  30.9478345  73.7859183  35.3309148  30.2817399
  70.0250587  34.2119062  29.6658499  70.0648958  34.7128269  30.3793206
  69.2000251  34.3029456  29.3964422  69.9090113  34.3000878  29.7309037
  72.2080200  43.7779802  37.7678794  71.3575830  43.9151516  37.9036439
  72.3708327  43.0443580  38.2126495  72.1064063  43.6893903  37.8534393
  71.4464950  40.7279572  31.9632398  70.6156880  40.8953390  31.7567646
  71.3916467  40.3515523  32.7481283  71.3154365  40.6969303  32.0480926
  69.2548733  34.2188465  37.5988809  69.8801437  33.6750598  37.8718241
  68.7999213  33.7383382  37.0296599  69.2796994  34.0677946  37.5550403
  69.8200994  39.0035163  22.4922516  69.9603955  39.5007628  23.1951157
  70.3183527  38.3021458  22.6336729  69.9142075  38.9737142  22.6174095
  69.8501216  39.8702274  19.8215093  70.4846296  40.4662699  19.7564554
  69.9326827  39.5705732  20.6360963  69.9557767  39.9143183  19.9318179
  71.4280199  35.8016250  19.7960535  71.7496040  35.3219332  19.1419797
  71.6907143  36.6115896  19.6051346  71.5146225  35.8506148  19.6716027
  74.6577172  46.8235124  33.3159351  74.1502263  47.3770971  33.7599981
  74.3603818  46.8843414  32.4978125  74.5382057  46.9141435  33.2607807
  76.8239354  35.1888444  32.1584014  77.2494426  34.7360970  31.5467540
  76.2096347  34.6348514  32.4348801  76.7968000  35.0402420  32.1089039
  66.3554204  42.0670115  23.0904639  66.8646434  42.6634623  23.4715944
  66.8288477  41.7996089  22.4081058  66.4997580  42.1155931  23.0459161
  77.2684952  50.7398382  21.2463294  76.5514262  50.5659244  20.7810532
  77.9191690  50.5050954  20.7138780  77.2586803  50.6794174  21.0992512
  75.2633577  31.6603544  25.5674591  74.6201895  31.5101190  26.1359729
  74.9232984  31.4145889  24.8023695  75.1178654  31.6015666  25.5377606
  79.8532924  39.6162970  24.9904599  79.1824113  40.1592673  24.8617665
  80.5472674  40.0857826  24.7486294  79.8561791  39.7661242  24.9360127
  73.9019657  51.7559682  30.2216358  73.6785312  50.9978512  30.5900384
  73.4129501  51.7857704  29.4996797  73.7963106  51.6481907  30.1693099
  80.0161051  36.0718854  27.8994972  80.3688661  35.6448577  28.5740771
  79.1575853  35.9869698  28.0296049  79.9410496  35.9963595  28.0189983
  68.7144736  38.7026374  25.9577819  67.9956725  39.1190506  26.2250683
  69.0857098  39.2680612  25.4069457  68.6636668  38.8475655  25.9160626
  78.0144317  39.3354223  31.8479815  77.9942244  39.1537518  32.7014594
  78.0623518  40.2066241  31.8239398  78.0178958  39.4370761  31.9703109
  75.9590647  45.9241415  37.7728291  75.9186502  45.2791092  37.1873447
  76.7713965  45.8678032  38.0853703  76.0733800  45.8200381  37.7325240
  72.5498114  51.9760140  27.6753442  72.1358513  51.3134271  27.2857284
  73.2345488  52.1237999  27.1549136  72.5896486  51.9000799  27.5409939
  75.9163408  51.1350226  28.4277059  75.5179692  51.2452496  27.6597879
  75.3014628  51.3432292  29.0103619  75.7662298  51.1823794  28.4008358
  74.4891310  37.7424374  21.2951198  73.8956150  38.0641370  20.7435765
  74.5266588  36.8965469  21.0872305  74.4065700  37.6648702  21.1833970
  81.4485111  31.1937266  28.8279285  80.9415976  30.4866405  28.7600462
  82.2452545  30.8630455  28.9580362  81.4912350  31.0410417  28.8378280
  77.3649127  37.7003878  24.7252949  77.1362820  37.7236580  23.8831307
  77.6247203  36.8761345  24.8447959  77.3695315  37.5819958  24.6178146
  71.6468355  39.5538351  34.3278049  71.1347258  38.9459534  34.6863080
  71.4747852  40.2694944  34.7952025  71.5457992  39.5701650  34.4494273
  66.4934070  37.9975926  36.9780411  66.3236660  38.6577301  36.4328617
  66.0500020  38.2082488  37.6992900  66.4033404  38.1261909  37.0042040
  70.4193889  36.2380424  26.0207144  70.8951256  36.5997504  25.3857325
  69.9182489  36.8936892  26.3007287  70.4159248  36.3874613  25.9683885
  75.5237426  37.4762596  36.7680304  76.0808856  37.2476405  36.1358770
  75.1998491  38.2368261  36.4915517  75.5583836  37.5546432  36.6336802
  73.2420543  40.5630249  37.7332312  73.9931870  40.8781926  38.0471866
  73.4343119  40.3609420  36.9066233  73.3811957  40.5797631  37.6575707
  72.4620543  38.3821624  19.3880528  72.8419507  38.4001253  18.6031643
  71.7213139  38.8275613  19.2671376  72.4089380  38.4503399  19.2544097
  80.0905833  36.6903815  24.9756107  80.0900060  36.5352472  25.8340383
  79.8862013  37.5366802  24.9197493  80.0605611  36.7924436  25.0944046
  62.1523104  40.1143600  29.3914924  61.9744865  39.6620209  30.1169839
  61.8642126  40.9169761  29.5753401  62.0836057  40.1666158  29.5258426
  77.8146685  41.3701317  28.6292314  78.3100351  40.6524312  28.5896334
  77.0046461  41.0672115  28.5146801  77.7690578  41.2198963  28.6066040
  73.2605297  45.2199130  20.7789318  72.4516619  44.8965804  20.7322628
  73.7680206  44.5132353  20.7117567  73.2154964  45.0680447  20.7619613
  63.8895574  42.6471324  26.5036683  63.0241093  42.6357014  26.3919454
  63.9894390  42.4601546  27.3507822  63.7769741  42.6177385  26.6125627
  79.8798504  44.1205005  31.3169443  80.3053576  43.5979427  30.7639868
  79.5155424  44.7185842  30.7958066  79.8885107  44.1315232  31.1578452
  69.5152584  52.4169222  30.0766788  69.8299143  53.2305611  30.0844570
  69.9245997  52.0319441  30.7448947  69.6220682  52.4797925  30.1770880
  76.4677104  47.8339269  27.6470600  76.9388282  48.5479532  27.8160585
  76.8037282  47.2338019  28.1830470  76.5872219  47.8510733  27.7502976
  78.5554088  49.4440582  39.8262672  78.6651054  48.6549143  40.1819419
  78.8844985  49.3546519  39.0237010  78.6206494  49.3146435  39.7605063
  73.3846598  32.6066740  34.6028695  73.5174504  31.8097733  34.9309670
  73.7691751  33.1333143  35.1826971  73.4602927  32.5666656  34.7372198
  77.1051050  47.6257203  34.4098293  76.5571996  47.0015087  34.1418358
  77.5664079  47.8151475  33.6942372  77.0918259  47.5616253  34.2648724
  76.4578954  29.5297066  31.2009788  75.6524917  29.4194795  31.5177626
  76.3285689  29.6309521  30.3439654  76.3199087  29.5280736  31.1217829
  72.4539713  34.6083152  22.0708160  73.2755408  34.7781465  21.8289855
  71.9909364  34.7630413  21.3474457  72.5070876  34.6564885  21.9279804
  71.0435045  32.6025915  32.8506589  71.5879458  32.2617041  33.4410930
  71.0971981  33.4611376  32.9927873  71.1324165  32.6781174  32.9588462
  66.8565604  46.3642331  29.7245397  67.4610461  46.3238165  29.0959217
  66.6492917  47.2113483  29.7549452  66.9154501  46.4830333  29.6361513
  76.6709376  48.6308276  30.9407634  77.4907750  48.4871242  31.2023929
  76.3903454  49.2554475  31.4824072  76.7506120  48.7018628  31.0595573
  62.0916886  45.3476948  29.5944320  61.9941164  44.5373220  29.9034376
  62.8745756  45.3268742  29.2090588  62.1933023  45.2244038  29.5831183
  80.7263851  64.9111496  24.4240672  79.9746751  64.5327035  24.1956717
  81.1749863  64.9429930  23.6759483  80.6813518  64.8597104  24.2798174
  82.3048607  64.9229889  26.6903445  82.4058970  64.1130242  27.0000573
  81.7090353  64.8286835  26.0603123  82.2321146  64.7894917  26.6429683
  75.5013652  60.9450175  26.3155778  75.2663836  60.1117827  26.2088047
  75.6399292  61.2254841  25.5016979  75.4869314  60.8633678  26.1798133
  77.8003739  53.1135906  29.2140086  77.1808771  52.5228553  29.0450101
  77.6987603  53.7047341  28.5804409  77.6941415  53.1139988  29.0945076
  77.5272872  56.6588187  31.4583655  77.4031569  57.2450633  32.0933474
  78.1791157  56.1648383  31.7595930  77.6046521  56.6726992  31.5969584
  81.5086948  60.1081085  20.7888313  80.9244163  60.6131116  21.1954177
  81.1057043  59.8823472  20.0484905  81.3626251  60.1489333  20.7393338
  77.0630976  65.8235846  27.5911985  76.5798554  66.5486336  27.5671568
  77.8754294  66.1211976  27.7022142  77.1121724  65.9738200  27.6039264
  81.2754452  48.2840133  23.1116772  82.0300420  48.6518450  22.8733822
  81.0981987  48.6579687  23.8795951  81.3608931  48.3938320  23.1901660
  79.9175174  66.3392022  27.7432264  80.6195753  65.8244011  27.8005021
  79.8372657  66.6666173  28.5479140  80.0098934  66.3106248  27.8705057
  80.9654080  56.5767609  36.8712680  81.1374584  56.4673503  37.7197961
  81.5023438  57.2222014  36.6343872  81.0699084  56.6559610  36.9617776
  79.6311517  50.6910452  19.8094885  79.4487090  50.9082332  18.9835877
  80.4937130  50.8049464  19.8653499  79.7316106  50.7400349  19.6949372
  79.2425949  62.5298374  27.2517873  80.0814848  62.7621307  27.2991634
  79.2737718  61.6602685  27.1824908  79.3707667  62.4355320  27.2482517
  79.8678652  62.9499249  31.5531178  80.4076877  62.8070380  32.2234550
  79.1848598  63.3496000  31.9215204  79.8470806  62.9878920  31.7065600
  75.2715797  59.1699540  31.7065600  75.0054212  58.3538656  31.8656590
  75.2854361  59.2152695  30.8361115  75.2340519  59.0556445  31.6019082
  79.1773544  53.9684624  18.3217358  78.4631721  53.6822804  18.7339790
  79.6617513  54.3081250  18.9623745  79.1432907  53.9766274  18.4772993
  80.0214403  52.7077918  34.3532607  79.3286200  52.2374898  34.5993339
  80.6374731  52.4816223  34.9274314  80.0098933  52.6045050  34.4741760
  75.6809211  59.9558319  28.9877344  75.4984784  59.9305205  28.1349636
  76.4158880  60.4257257  29.0266253  75.7623275  60.0219681  28.8675262
  78.7454962  56.6743322  35.4959452  79.4694935  56.6596353  35.9824347
  78.8471099  57.3838677  34.9981421  78.8673171  56.7768025  35.4938239
  75.6480121  56.8351820  29.1376410  76.2253624  56.6988271  29.7768656
  74.9494183  56.3787604  29.3921995  75.6301142  56.7474086  29.2698700
  82.4047423  58.4885876  27.3514894  82.1466667  57.6557610  27.3246193
  82.4595906  58.7143488  26.5107394  82.3747201  58.3983647  27.2235030
  81.3782135  56.0423638  27.8379788  80.8031727  56.2015806  28.4743749
  81.0017812  55.4059047  27.3748239  81.2384948  55.9721451  27.8634347
  71.1238954  55.6863713  25.8524229  71.2099206  55.3095581  26.6337759
  71.7514752  55.3124158  25.3744187  71.2295505  55.5749195  25.8969706
  76.7114913  64.4555446  29.9055590  76.7519058  64.7270297  29.0775369
  77.2709437  64.9797354  30.3213378  76.7998259  64.5731201  29.8447478
  78.1629499  63.0397395  24.7309516  77.3367617  63.2859132  24.6043794
  78.2241490  62.9609476  25.5971574  78.0503666  63.0642344  24.8398460
  80.3805523  49.1066336  25.6904956  79.5127948  49.1788935  25.7562565
  80.6680727  49.9088415  25.8792931  80.2945271  49.2360483  25.7279722
  80.8834244  67.6341657  25.4988695  80.6634539  67.3439012  26.2915362
  80.6628766  66.9756612  24.9706608  80.8181838  67.4941366  25.5377604
  79.7951191  59.7214974  27.7644397  79.5064440  59.0952445  28.2990124
  80.6634539  59.6635261  27.8309077  79.8811443  59.6202518  27.8535351
  79.9983464  61.3610225  23.6886762  80.7529432  61.7423264  23.9022224
  79.4054077  61.8121369  24.1433458  80.0220178  61.4839052  23.7869640
  81.3181691  62.5318786  29.0626877  80.7962444  62.6719078  29.7478742
  81.7055711  61.7729451  29.2528995  81.2985392  62.4404310  29.1927954
  78.3072875  52.5824595  23.1321832  78.0197671  52.2125865  22.3953779
  78.9943343  53.0519450  22.8705537  78.3661772  52.5971564  22.9836908
  81.1426547  56.4477543  24.5789237  81.8649198  56.6118701  24.1193043
  80.6634539  57.1687208  24.4728576  81.1790277  56.5775773  24.4954851
  78.7934163  58.8535616  33.6843377  79.3055260  59.1319869  33.0352136
  78.5070506  59.5924910  34.0506190  78.8269026  59.0037969  33.6433255
  75.8801070  53.3605808  23.9807113  75.9817206  54.1631969  24.3088089
  76.6756956  53.1593143  23.6830194  76.0128975  53.4491706  23.9842468
  76.6964802  53.4752986  31.7228235  76.5550293  52.6236926  31.8472743
  76.9805365  53.5181646  30.8990441  76.7172648  53.3552736  31.6195859
  77.4655107  51.3883333  35.0405685  76.9297296  50.7763691  35.3566452
  77.5272872  51.9631469  35.6939352  77.3950740  51.3830261  35.1841112
  79.5843863  58.7964067  24.8525740  79.7408482  58.7310870  25.7081732
  79.9244456  59.5712620  24.6404419  79.6577098  58.9013266  24.9480334
  76.1578124  55.9799018  25.1686507  76.5377089  56.3983563  24.5046774
  75.5833489  56.5612474  25.4755350  76.1289449  56.1276877  25.1163248
  79.8008926  57.5459423  29.8002001  78.9596932  57.4463297  30.0080895
  80.0098934  58.3154903  30.1516322  79.7073618  57.6451466  29.8829316
  77.2784493  55.1678960  27.6286752  76.8841190  55.2421971  26.8536862
  76.7224610  55.5536906  28.1795114  77.1387305  55.2360734  27.5954412
  81.6743942  62.6890543  33.7571697  81.5664297  62.6992605  34.6233755
  81.8839723  63.5145323  33.5676650  81.6894053  62.8131617  33.8575788
  79.6917734  59.9403185  31.2193634  79.1005667  60.5812683  31.1896649
  80.4538757  60.3640802  31.1924934  79.7165994  60.0979023  31.2108781
  80.0878356  51.1005183  31.8861652  80.5479838  51.1744112  32.6236776
  80.1334463  51.8986437  31.5361473  80.1628912  51.2299330  31.9434408
  81.7361706  51.7671878  36.4533679  81.3447271  51.1205225  36.8889457
  81.9047569  52.3583313  37.0727934  81.7032616  51.7586145  36.6096385
  76.8766134  54.7294373  34.2613368  77.7391747  54.6290083  34.1750698
  76.5457917  54.1489083  33.6998940  76.9551331  54.6286000  34.1658774
  80.2367920  53.5536822  30.9223786  79.6120990  53.5655214  30.3149739
  79.9013515  54.0296998  31.5715026  80.0953412  53.6255339  30.9280355
  80.4209669  51.8961941  16.9796471  80.0722473  52.5481666  17.4428021
  79.9406115  51.8819054  16.2520342  80.2979913  51.9904994  16.9407562
  76.9493596  61.6137282  32.3627550  76.4193520  60.9229721  32.4122525
  77.2218689  61.6047468  31.5340259  76.9118318  61.5104414  32.2474966
  79.5058666  55.1629970  33.1398655  79.6652152  54.4073294  33.5450377
  79.3251559  55.7120910  33.7939392  79.5024025  55.1323784  33.2961361
  72.2289438  58.2865047  29.7195899  72.1232887  58.2411891  28.8547983
  71.4789658  58.6318827  30.0010184  72.1025041  58.3305955  29.6333229
  80.9983170  49.7304370  29.6658499  81.0381542  50.2313576  30.3793206
  80.1732835  49.8214764  29.3964422  80.8822696  49.8186186  29.7309037
  82.4197534  56.2464880  31.9632398  81.5889463  56.4138698  31.7567646
  82.3649051  55.8700831  32.7481283  82.2886949  56.2154611  32.0480926
  80.2281317  49.7373773  37.5988809  80.8534020  49.1935905  37.8718241
  79.7731797  49.2568690  37.0296599  80.2529578  49.5863254  37.5550403
  80.7933578  54.5220471  22.4922516  80.9336539  55.0192936  23.1951157
  81.2916110  53.8206766  22.6336729  80.8874659  54.4922450  22.6174095
  80.8233800  55.3887582  19.8215093  81.4578879  55.9848007  19.7564554
  80.9059411  55.0891040  20.6360963  80.9290351  55.4328490  19.9318179
  77.3286788  57.5855423  23.0904639  77.8379017  58.1819931  23.4715944
  77.8021060  57.3181397  22.4081058  77.4730164  57.6341239  23.0459161
  79.6877320  54.2211682  25.9577819  78.9689309  54.6375814  26.2250683
  80.0589682  54.7865920  25.4069457  79.6369251  54.3660963  25.9160626
  77.4666654  53.5161234  36.9780411  77.2969244  54.1762609  36.4328617
  77.0232604  53.7267796  37.6992900  77.3765987  53.6447216  37.0042040
  81.3926473  51.7565732  26.0207144  81.8683839  52.1182812  25.3857325
  80.8915073  52.4122200  26.3007287  81.3891832  51.9059921  25.9683885
  74.3668718  56.4208100  32.2368901  73.8195438  55.7508745  32.3549769
  75.1561096  56.0537948  32.3012368  74.4020902  56.2673086  32.2637601
  73.1255688  55.6328908  29.3914924  72.9477449  55.1805517  30.1169839
  72.8374710  56.4355069  29.5753401  73.0568641  55.6851466  29.5258426
  74.8628158  58.1656631  26.5036683  73.9973677  58.1542322  26.3919454
  74.9626973  57.9786854  27.3507822  74.7502325  58.1362693  26.6125627
  80.4885167  67.9354530  30.0766788  80.8031726  68.7490919  30.0844570
  80.8978581  67.5504749  30.7448947  80.5953265  67.9983232  30.1770880
  77.8298188  61.8827639  29.7245397  78.4343045  61.8423473  29.0959217
  77.6225500  62.7298791  29.7549452  77.8887085  62.0015641  29.6361513
  73.0649470  60.8662256  29.5944320  72.9673748  60.0558528  29.9034376
  73.8478340  60.8454049  29.2090588  73.1665606  60.7429346  29.5831183
  58.4749508  10.8119012  11.3580719  57.7232407  10.4334550  11.1296764
  58.9235520  10.8437445  10.6099529  58.4299175  10.7604619  11.2138221
  63.4678759  13.1858650  12.7277378  63.8518138  13.7545549  12.1882153
  63.4037900  12.4608160  12.2483194  63.5152186  13.1634113  12.5771240
  60.0534264  10.8237404  13.6243492  60.1544627  10.0137758  13.9340619
  59.4576009  10.7294350  12.9943170  59.9806803  10.6902432  13.5769730
  59.8935004  15.7414993  15.0258348  60.5372459  16.1828157  15.4154506
  60.2191259  14.9368419  14.9388606  60.0366832  15.6880188  15.0703825
  53.2499308   6.8457690  13.2495825  53.0149493   6.0125343  13.1428094
  53.3884949   7.1262356  12.4357026  53.2354971   6.7641194  13.1138180
  60.5955583   8.7526968  10.3978209  60.9171424   9.2932175   9.7939517
  61.2427680   8.1823739  10.5300499  60.7381639   8.7486143  10.3285245
  60.3016870   5.7357420  17.6711213  60.9465872   5.2429863  17.3522162
  60.5418647   5.8782206  18.4977291  60.4327455   5.6834862  17.7460746
  62.8402961   8.5812325  17.3218106  63.1226204   7.7863731  17.1004861
  63.5689122   9.0592913  17.3423167  62.9892525   8.5346922  17.2921121
  54.8116633  11.7243361  14.5252031  54.3284211  12.4493851  14.5011615
  55.6239951  12.0219491  14.6362189  54.8607381  11.8745715  14.5379311
  60.8830787  10.5175542  17.1301846  60.3657729  10.1582957  16.5263154
  61.5805178   9.9937716  17.1407912  60.9096368  10.3873230  17.0432105
  64.5394379  10.9670356  23.0918019  64.6277725  10.7796496  23.9396229
  64.9684092  10.3207786  22.6922866  64.6156481  10.8433364  23.1589770
  62.1064839  10.2501516  22.0735681  61.5435674   9.8374126  22.5975342
  62.8685862  10.1754422  22.4928824  62.1359287  10.1778916  22.2128681
  57.6660830  12.2399537  14.6772311  58.3681410  11.7251526  14.7345068
  57.5858313  12.5673688  15.4819186  57.7584591  12.2113763  14.8045103
  56.9911606   8.4305889  14.1857919  57.8300505   8.6628822  14.2331681
  57.0223375   7.5610201  14.1164955  57.1193323   8.3362836  14.1822564
  57.6164309   8.8506764  18.4871225  58.1562534   8.7077895  19.1574597
  56.9334255   9.2503515  18.8555251  57.5956463   8.8886435  18.6405647
  64.6514438  10.3979375  25.7561803  65.4354855  10.5110223  26.1217545
  64.4511033   9.5720512  25.9520488  64.7380464  10.2926094  25.8396189
  53.0201454   5.0707055  18.6405646  52.7539869   4.2546172  18.7996637
  53.0340018   5.1160211  17.7701162  52.9826176   4.9563960  18.5359128
  64.8084832  12.3089477  19.4028258  64.0100077  12.0688977  19.6602127
  65.2570843  12.3603870  20.1495306  64.7559443  12.2811868  19.5513182
  53.4294867   5.8565834  15.9217391  53.2470441   5.8312721  15.0689683
  54.1644536   6.3264772  15.9606299  53.5108931   5.9227197  15.8015309
  63.8685569   6.0549922  27.2948446  63.0758549   6.3693434  27.4801066
  63.9834496   6.2701390  26.4569231  63.7680979   6.1333759  27.1986781
  53.3965778   2.7359335  16.0716457  53.9739280   2.5995786  16.7108703
  52.6979839   2.2795119  16.3262042  53.3786799   2.6481601  16.2038747
  48.8724611   1.5871228  12.7864276  48.9584863   1.2103096  13.5677806
  49.5000408   1.2131674  12.3084234  48.9781162   1.4756710  12.8309753
  59.7687927   8.1174625  12.9561333  60.4061874   7.8786372  13.5013126
  60.1942999   8.3211784  12.2214493  59.9264094   8.1125635  12.9278490
  54.4600570  10.3562961  16.8395636  54.5004715  10.6277812  16.0115416
  55.0195094  10.8804869  17.2553424  54.5483916  10.4738716  16.7787525
  62.1509399   8.5947047  14.6355119  62.2248407   8.4322219  15.4896969
  62.9678906   8.7837237  14.3915601  62.2825758   8.5983790  14.7253145
  55.9115156   8.9404910  11.6649562  55.0853274   9.1866647  11.5383841
  55.9727147   8.8616991  12.5311621  55.7989323   8.9649859  11.7738507
  60.6913985  11.5581790   9.3668592  60.9812283  11.1670772   8.6427819
  61.4217466  11.7398495   9.8073868  60.8420869  11.5275604   9.3251399
  61.2808730   6.3599536  20.4521723  60.7820424   7.0715304  20.5306611
  62.0908954   6.6800203  20.4139885  61.3264837   6.5126385  20.4578291
  58.6319901  13.5349173  12.4328742  58.4120196  13.2446527  13.2255409
  58.4114423  12.8764128  11.9046654  58.5667495  13.3948881  12.4717651
  57.5436848   5.6222489  14.6984444  57.2550096   4.9959960  15.2330171
  58.4120196   5.5642777  14.7649124  57.6297100   5.5210033  14.7875398
  60.7987856  14.9078563  11.2159434  61.4511914  14.3755005  11.4450461
  60.1013465  14.5547215  11.6027308  60.7918574  14.7768086  11.3071602
  57.7469121   7.2617740  10.6226809  58.5015089   7.6430779  10.8362271
  57.1539734   7.7128884  11.0773505  57.7705835   7.3846568  10.7209687
  59.0667348   8.4326302  15.9966924  58.5448101   8.5726593  16.6818789
  59.4541368   7.6736966  16.1869042  59.0471049   8.3411825  16.1268001
  56.5419820   4.7543131  20.6183423  57.0540917   5.0327384  19.9692183
  56.2556163   5.4932425  20.9846236  56.5754683   4.9045485  20.5773301
  68.4937100   7.9210951  16.5899551  68.3551459   8.6191996  17.0948293
  67.7137097   7.7659607  16.2335733  68.3580326   8.0011117  16.6125825
  59.6313833  12.1387082  19.0796780  59.7803397  11.5789998  18.4270184
  60.4113835  12.2179083  19.4629298  59.7687927  12.0672647  19.0393729
  62.1567134  12.3101725  20.3581270  62.0810805  11.6410535  20.9132059
  62.0856993  13.0119513  20.8721937  62.1347741  12.3146632  20.5158119
  62.8137381  10.8302723  11.1904876  63.5787272  10.5612367  10.8687541
  62.7115471  10.3452734  11.9074939  62.9118876  10.7192288  11.2484704
  61.5458768  15.7170044  18.8159271  62.0354698  15.0180834  18.6334936
  60.9743000  15.4193914  19.4035329  61.5343298  15.5696268  18.8760312
  57.3329520   4.6971583  11.7865787  57.4894139   4.6318386  12.6421779
  57.6730113   5.4720135  11.5744466  57.4062754   4.8020781  11.8820381
  67.7425772   8.2832114  27.7686062  68.5560637   8.0117263  27.9291194
  67.5820738   7.9839654  26.9646258  67.8395720   8.1987040  27.6731468
  67.7547016   9.3438404  23.0408902  68.3926736   8.8498600  22.7071359
  67.1121107   9.2715804  22.4561129  67.7541242   9.2597412  22.9051257
  67.8101272  10.0358212  19.6814259  68.5993650   9.6847277  19.8016341
  67.9844870  10.8494601  19.4190893  67.9521554  10.1044069  19.6602127
  59.4229598   8.5898058  20.6911743  59.3149953   8.6000120  21.5573801
  59.6325380   9.4152838  20.5016697  59.4379709   8.7139133  20.7915835
  57.4403390   5.8410700  18.1533681  56.8491324   6.4820198  18.1236696
  58.2024414   6.2648318  18.1264980  57.4651651   5.9986539  18.1448828
  67.1992907  11.2920012  15.5865705  67.0012595  11.7810826  14.8921917
  66.5780618  11.4961253  16.1649839  67.0780471  11.3936550  15.5688929
  54.6979253   7.5144798  19.2967597  54.1679177   6.8237237  19.3462572
  54.9704346   7.5054983  18.4680306  54.6603975   7.4111930  19.1815013
  49.9775095   4.1872562  16.6535946  49.8718544   4.1419406  15.7888030
  49.2275315   4.5326343  16.9350230  49.8510698   4.2313470  16.5673275
  63.3795412   8.2427947  20.2499397  62.8720503   8.7963794  20.6940028
  63.0822059   8.3036237  19.4318172  63.2600297   8.3334259  20.1947854
  55.0772445   3.4862938  10.0244685  55.5864674   4.0827446  10.4055991
  55.5506717   3.2188912   9.3421105  55.2215820   3.5348754   9.9799208
  62.6237898  13.1752506  17.1556404  62.4003552  12.4171335  17.5240431
  62.1347741  13.2050527  16.4336844  62.5181347  13.0674730  17.1033145
  64.6808887   7.3434238  24.7068338  64.6404742   6.6983915  24.1213494
  65.4932205   7.2870855  25.0193750  64.7952041   7.2393205  24.6665287
  61.2716355  13.3952964  14.6093489  60.8576753  12.7327094  14.2197331
  61.9563729  13.5430823  14.0889183  61.3114726  13.3193622  14.4749986
  64.6381649  12.5543049  15.3617106  64.2397932  12.6645319  14.5937926
  64.0232868  12.7625115  15.9443665  64.4880538  12.6016617  15.3348405
  52.6113814   4.0664147  13.4376729  51.7459334   4.0549837  13.3259501
  52.7112630   3.8794370  14.2847869  52.4987981   4.0370208  13.5465674
  58.2370824  13.8362045  17.0106835  58.5517383  14.6498434  17.0184617
  58.6464238  13.4512264  17.6788994  58.3438922  13.8990748  17.1110927
  65.1895344   9.2532092  14.5810647  65.6606522   9.9672355  14.7500632
  65.5255522   8.6530842  15.1170516  65.3090459   9.2703556  14.6843023
  67.2772328  10.8633406  26.7602719  67.3869294  10.0741966  27.1159466
  67.6063225  10.7739342  25.9577057  67.3424734  10.7339258  26.6945110
  65.8269290   9.0450026  21.3438340  65.2790236   8.4207910  21.0758405
  66.2882319   9.2344298  20.6282419  65.8136500   8.9809077  21.1988771
  55.5783844   7.7835154  16.6585443  56.1828702   7.7430988  16.0299264
  55.3711157   8.6306306  16.6889499  55.6372742   7.9023156  16.5701560
  65.3927617  10.0501099  17.8747681  66.2125990   9.9064065  18.1363976
  65.1121694  10.6747298  18.4164119  65.4724360  10.1211451  17.9935620
  50.8135127   6.7669771  16.5284367  50.7159405   5.9566043  16.8374423
  51.5963996   6.7461565  16.1430635  50.9151263   6.6436862  16.5171229
  69.4482091  26.3304320  11.3580719  68.6964991  25.9519858  11.1296764
  69.8968103  26.3622753  10.6099529  69.4031758  26.2789927  11.2138221
  78.3734668  23.0628127  25.2003944  79.0801436  22.5680158  25.3290878
  78.5622604  23.5037209  24.4706602  78.5062574  23.0546478  25.1112989
  74.4411343  28.7043958  12.7277378  74.8250722  29.2730856  12.1882153
  74.3770484  27.9793468  12.2483194  74.4884770  28.6819421  12.5771240
  71.0266848  26.3422712  13.6243492  71.1277211  25.5323066  13.9340619
  70.4308593  26.2479658  12.9943170  70.9539386  26.2087740  13.5769730
  70.8667587  31.2600301  15.0258348  71.5105043  31.7013465  15.4154506
  71.1923843  30.4553727  14.9388606  71.0099416  31.2065496  15.0703825
  64.2231892  22.3642998  13.2495825  63.9882076  21.5310651  13.1428094
  64.3617533  22.6447664  12.4357026  64.2087554  22.2826502  13.1138180
  66.5221979  14.5328729  16.1480133  65.9027011  13.9421376  15.9790148
  66.4205843  15.1240164  15.5144456  66.4159655  14.5332811  16.0285123
  71.5688167  24.2712276  10.3978209  71.8904008  24.8117483   9.7939517
  72.2160263  23.7009047  10.5300499  71.7114222  24.2671451  10.3285245
  66.2491112  18.0781011  18.3923702  66.1249809  18.6643456  19.0273521
  66.9009397  17.5841206  18.6935977  66.3264762  18.0919815  18.5309631
  71.2749453  21.2542728  17.6711213  71.9198456  20.7615171  17.3522162
  71.5151230  21.3967514  18.4977291  71.4060038  21.2020170  17.7460746
  73.8135545  24.0997633  17.3218106  74.0958788  23.3049039  17.1004861
  74.5421705  24.5778221  17.3423167  73.9625108  24.0532230  17.2921121
  65.7849217  27.2428669  14.5252031  65.3016795  27.9679159  14.5011615
  66.5972535  27.5404799  14.6362189  65.8339964  27.3931023  14.5379311
  71.8563371  26.0360850  17.1301846  71.3390312  25.6768265  16.5263154
  72.5537762  25.5123024  17.1407912  71.8828952  25.9058538  17.0432105
  75.5126963  26.4855664  23.0918019  75.6010308  26.2981804  23.9396229
  75.9416675  25.8393093  22.6922866  75.5889065  26.3618672  23.1589770
  73.0797422  25.7686824  22.0735681  72.5168257  25.3559434  22.5975342
  73.8418446  25.6939730  22.4928824  73.1091871  25.6964224  22.2128681
  68.6393414  27.7584845  14.6772311  69.3413993  27.2436834  14.7345068
  68.5590897  28.0858996  15.4819186  68.7317174  27.7299071  14.8045103
  69.6872320  17.9960432  23.8052726  69.8592824  17.8866327  24.6538008
  70.2241678  18.6414837  23.5683919  69.7917324  18.0752434  23.8957823
  67.9644189  23.9491197  14.1857919  68.8033089  24.1814130  14.2331681
  67.9955958  23.0795508  14.1164955  68.0925907  23.8548143  14.1822564
  68.5896892  24.3692072  18.4871225  69.1295117  24.2263203  19.1574597
  67.9066839  24.7688823  18.8555251  68.5689046  24.4071743  18.6405647
  75.6247022  25.9164683  25.7561803  76.4087439  26.0295531  26.1217545
  75.4243616  25.0905820  25.9520488  75.7113047  25.8111402  25.8396189
  63.9934037  20.5892363  18.6405646  63.7272453  19.7731480  18.7996637
  64.0072601  20.6345519  17.7701162  63.9558760  20.4749268  18.5359128
  68.7432644  14.1270741  21.2872654  68.0504440  13.6567721  21.5333386
  69.3592971  13.9009046  21.8614361  68.7317174  14.0237873  21.4081807
  75.7817415  27.8274785  19.4028258  74.9832661  27.5874285  19.6602127
  76.2303427  27.8789178  20.1495306  75.7292026  27.7997176  19.5513182
  64.4027451  21.3751142  15.9217391  64.2203024  21.3498028  15.0689683
  65.1377120  21.8450080  15.9606299  64.4841515  21.4412505  15.8015309
  67.4673203  18.0936145  22.4299499  68.1913175  18.0789176  22.9164394
  67.5689339  18.8031501  21.9321468  67.5891412  18.1960848  22.4278286
  74.8418152  21.5735230  27.2948446  74.0491133  21.8878742  27.4801066
  74.9567079  21.7886698  26.4569231  74.7413563  21.6519067  27.1986781
  75.7701945  21.4755434  22.2333743  76.3440807  20.8382678  22.3882307
  75.6916749  21.4759516  21.3643401  75.8435180  21.3820545  22.1280154
  64.3698361  18.2544643  16.0716457  64.9471864  18.1181094  16.7108703
  63.6712423  17.7980427  16.3262042  64.3519383  18.1666909  16.2038747
  71.1265664  19.9078699  14.2854940  70.8684908  19.0750434  14.2586240
  71.1814146  20.1336312  13.4447441  71.0965441  19.8176470  14.1575077
  70.1000376  17.4616461  14.7719835  69.5249967  17.6208630  15.4083796
  69.7236052  16.8251870  14.3088286  69.9603188  17.3914274  14.7974394
  73.7673664  15.9339811  19.6312214  73.3788097  15.5094028  18.9764405
  73.1028363  16.1821960  20.1389240  73.6120592  15.9078532  19.6100082
  59.8457195  17.1056536  12.7864276  59.9317446  16.7288404  13.5677806
  60.4732992  16.7316982  12.3084234  59.9513746  16.9942018  12.8309753
  81.0922093  22.8464411  22.2418596  80.8560730  22.0152476  22.1230657
  81.7365322  22.7950018  22.8273440  81.1516763  22.7162099  22.3104490
  70.7420511  23.6359933  12.9561333  71.3794458  23.3971680  13.5013126
  71.1675582  23.8397091  12.2214493  70.8996677  23.6310943  12.9278490
  65.4333153  25.8748269  16.8395636  65.4737298  26.1463120  16.0115416
  65.9927677  26.3990177  17.2553424  65.5216499  25.9924024  16.7787525
  71.5491866  12.1368638  27.0098806  71.2345307  12.9068200  26.7468369
  71.2281799  11.5738894  26.4251033  71.4550785  12.1678906  26.8840156
  73.1241983  24.1132355  14.6355119  73.1980991  23.9507527  15.4896969
  73.9411489  24.3022545  14.3915601  73.2558341  24.1169098  14.7253145
  66.8847739  24.4590218  11.6649562  66.0585857  24.7051955  11.5383841
  66.9459731  24.3802299  12.5311621  66.7721906  24.4835167  11.7738507
  71.6646568  27.0767098   9.3668592  71.9544867  26.6856080   8.6427819
  72.3950049  27.2583803   9.8073868  71.8153453  27.0460912   9.3251399
  72.2541314  21.8784844  20.4521723  71.7553007  22.5900612  20.5306611
  73.0641538  22.1985511  20.4139885  72.2997420  22.0311693  20.4578291
  69.6052484  29.0534481  12.4328742  69.3852779  28.7631835  13.2255409
  69.3847006  28.3949436  11.9046654  69.5400078  28.9134189  12.4717651
  68.5169431  21.1407797  14.6984444  68.2282680  20.5145268  15.2330171
  69.3852779  21.0828085  14.7649124  68.6029683  21.0395341  14.7875398
  71.7720440  30.4263871  11.2159434  72.4244498  29.8940313  11.4450461
  71.0746049  30.0732523  11.6027308  71.7651158  30.2953394  11.3071602
  68.7201705  22.7803048  10.6226809  69.4747673  23.1616087  10.8362271
  68.1272317  23.2314192  11.0773505  68.7438418  22.9031876  10.7209687
  71.1808372  14.7365889  25.7484021  70.3708147  15.0423668  25.6373863
  71.6583058  15.4571471  25.8636605  71.1311850  14.8880490  25.7491092
  70.0399931  23.9511610  15.9966924  69.5180685  24.0911901  16.6818789
  70.4273952  23.1922274  16.1869042  70.0203632  23.8597133  16.1268001
  67.5152404  20.2728439  20.6183423  68.0273501  20.5512692  19.9692183
  67.2288746  21.0117733  20.9846236  67.5487267  20.4230793  20.5773301
  64.6019310  14.7798631  10.9147160  64.7035446  15.5824792  11.2428135
  65.3975197  14.5785967  10.6170240  64.7347216  14.8684530  10.9182515
  71.0336129  12.3654828  20.6784465  70.8419326  12.3809962  21.5283889
  71.8834725  12.5618502  20.6551120  71.1311851  12.3969179  20.8007760
  65.4183042  14.8945809  18.6568281  65.2768534  14.0429750  18.7812789
  65.7023605  14.9374470  17.8330487  65.4390888  14.7745559  18.5535906
  79.4669683  23.4396259  16.5899551  79.3284042  24.1377304  17.0948293
  78.6869681  23.2844915  16.2335733  79.3312910  23.5196425  16.6125825
  77.8047768  19.7392634  22.8421933  77.7995807  18.8672450  22.8464359
  78.5108762  19.9380803  22.3691388  77.9092772  19.6396508  22.7728968
  71.5318662  19.4669618  22.2135753  71.6762037  20.0470826  21.5778863
  71.8794310  19.8445914  22.9185607  71.6046123  19.6090322  22.2234748
  73.7038579  18.6659786  19.9960884  72.9561893  18.8590801  19.5909162
  73.8580104  17.8405006  19.7585006  73.6161007  18.5724898  19.9006290
  70.6046417  27.6572390  19.0796780  70.7535980  27.0975305  18.4270184
  71.3846419  27.7364391  19.4629298  70.7420510  27.5857955  19.0393729
  73.1299717  27.8287032  20.3581270  73.0543388  27.1595843  20.9132059
  73.0589576  28.5304821  20.8721937  73.1080324  27.8331940  20.5158119
  73.9440356  12.5610337  20.8856288  74.4012970  13.2934311  21.0129080
  74.0196685  12.1376802  21.6443544  74.0231326  12.6067575  21.0157365
  66.1873347  12.8076157  21.9745732  65.6515537  12.1956515  22.2906499
  66.2491112  13.3824293  22.6279398  66.1168980  12.8023084  22.1181159
  73.7869964  26.3488031  11.1904876  74.5519855  26.0797675  10.8687541
  73.6848054  25.8638042  11.9074939  73.8851460  26.2377596  11.2484704
  71.8222734  14.5512441  17.7298112  71.0318809  14.3703901  18.0515448
  72.2183357  13.7739393  17.7128407  71.7639610  14.4099902  17.7750661
  74.3360564  17.0272700  22.2121611  74.2719705  17.8882656  22.0841748
  74.4757752  16.7104693  21.4117162  74.3476034  17.1072867  22.0749824
  73.0179658  19.7204839  16.3537814  72.5941907  19.9209338  15.6176832
  72.8424513  18.8733687  16.4662114  72.9290539  19.6253621  16.2611504
  72.5191352  31.2355352  18.8159271  73.0087282  30.5366141  18.6334936
  71.9475584  30.9379222  19.4035329  72.5075882  31.0881576  18.8760312
  68.3062103  20.2156891  11.7865787  68.4626722  20.1503693  12.6421779
  68.6462696  20.9905443  11.5744466  68.3795338  20.3206089  11.8820381
  78.7158355  23.8017422  27.7686062  79.5293220  23.5302570  27.9291194
  78.5553321  23.5024962  26.9646258  78.8128304  23.7172348  27.6731468
  75.9930517  14.4851079  20.7081450  76.2072487  13.8461993  20.1544804
  75.3764416  14.9296903  20.2789312  75.9335846  14.4561222  20.5631881
  64.8796365  17.3991841  12.1026554  65.2595329  17.8176386  11.4386821
  64.3051729  17.9805297  12.4095397  64.8507689  17.5469700  12.0503295
  78.1569605  16.0940144  21.6464757  77.3446287  15.7866034  21.7277930
  78.6159540  15.6139144  22.2107469  78.1049990  15.9776636  21.7419351
  75.2523113  17.5000215  26.4293460  75.7222744  18.1242332  26.8161334
  75.2984993  16.8317191  26.9886674  75.3290988  17.4934896  26.5693531
  78.7279599  24.8623712  23.0408902  79.3659320  24.3683908  22.7071359
  78.0853691  24.7901112  22.4561129  78.7273826  24.7782720  22.9051257
  73.9457676  11.8188383  23.5471787  74.7731106  11.5473532  23.6030402
  73.9665522  12.6149225  23.9035606  74.0710526  11.8968137  23.6086970
  78.7833856  25.5543520  19.6814259  79.5726234  25.2032585  19.8016341
  78.9577454  26.3679909  19.4190893  78.9254137  25.6229377  19.6602127
  68.5227166  18.9652246  16.7342048  67.6815173  18.8656120  16.9420942
  68.7317174  19.7347726  17.0856369  68.4291859  19.0644289  16.8169363
  66.0002733  16.5871783  14.5626799  65.6059431  16.6614795  13.7876908
  65.4442850  16.9729729  15.1135161  65.8605545  16.6553557  14.5294459
  72.3343831  16.8933645  15.9839646  72.0306969  16.3389633  16.5850053
  71.6323252  17.0725855  15.4967680  72.1860041  16.8378427  16.0009351
  70.3962182  24.1083366  20.6911743  70.2882537  24.1185428  21.5573801
  70.6057963  24.9338146  20.5016697  70.4112293  24.2324441  20.7915835
  68.4135974  21.3596008  18.1533681  67.8223907  22.0005506  18.1236696
  69.1756998  21.7833625  18.1264980  68.4384235  21.5171847  18.1448828
  68.8096597  12.5198006  18.8201699  69.2698078  12.5936935  19.5576822
  68.8552704  13.3179260  18.4701520  68.8847152  12.6492153  18.8774455
  70.4579947  13.1864701  23.3873726  70.0665512  12.5398048  23.8229503
  70.6265809  13.7776136  24.0067981  70.4250857  13.1778969  23.5436432
  78.1725490  26.8105320  15.5865705  77.9745179  27.2996134  14.8921917
  77.5513201  27.0146561  16.1649839  78.0513055  26.9121858  15.5688929
  65.5984375  16.1487197  21.1953415  66.4609988  16.0482906  21.1090745
  65.2676158  15.5681906  20.6338987  65.6769571  16.0478823  21.0998821
  80.0899292  20.3769472  21.1210954  80.8133491  19.9241999  20.9421974
  79.8249254  20.6574138  20.3383282  80.1580565  20.3520441  20.9789669
  68.9586161  14.9729646  17.8563833  68.3339231  14.9848038  17.2489786
  68.6231755  15.4489821  18.5055073  68.8171652  15.0448163  17.8620402
  65.6711836  23.0330106  19.2967597  65.1411761  22.3422545  19.3462572
  65.9436929  23.0240291  18.4680306  65.6336558  22.9297238  19.1815013
  75.8718082  20.4753350  19.2705969  75.2575075  19.9311401  19.5654604
  76.3885367  19.9617587  18.7911785  75.8573744  20.3189759  19.2430197
  75.1114379  21.5457620  17.0050268  74.6841987  20.9207339  16.5715703
  75.1039323  21.2632542  17.8309275  75.0473520  21.4110401  17.0630095
  68.2276906  16.5822793  20.0738702  68.3870393  15.8266118  20.4790423
  68.0469800  17.1313733  20.7279439  68.2242265  16.5516607  20.2301407
  60.9507678  19.7057870  16.6535946  60.8451127  19.6604714  15.7888030
  60.2007898  20.0511650  16.9350230  60.8243281  19.7498778  16.5673275
  69.7201411  11.1497193  16.5998546  69.7599782  11.6506400  17.3133253
  68.8951075  11.2407587  16.3304469  69.6040937  11.2379009  16.6649084
  71.9031024  20.7157933  24.7018840  71.0526654  20.8529647  24.8376485
  72.0659151  19.9821711  25.1466542  71.8014887  20.6272034  24.7874440
  71.1415774  17.6657703  18.8972445  70.3107704  17.8331521  18.6907693
  71.0867291  17.2893654  19.6821330  71.0105189  17.6347434  18.9820973
  68.9499557  11.1566596  24.5328856  69.5752261  10.6128729  24.8058288
  68.4950037  10.6761513  23.9636646  68.9747818  11.0056077  24.4890449
  74.3527996  23.7613255  20.2499397  73.8453087  24.3149102  20.6940028
  74.0554642  23.8221545  19.4318172  74.2332881  23.8519566  20.1947854
  66.0505028  19.0048246  10.0244685  66.5597258  19.6012754  10.4055991
  66.5239301  18.7374220   9.3421105  66.1948404  19.0534062   9.9799208
  73.5970481  28.6937814  17.1556404  73.3736136  27.9356643  17.5240431
  73.1080325  28.7235835  16.4336844  73.4913930  28.5860038  17.1033145
  68.4095560  15.6404505  12.8917866  67.6907549  16.0568637  13.1590729
  68.7807922  16.2058744  12.3409504  68.3587492  15.7853786  12.8500673
  77.7095141  16.2732354  18.7819862  77.6893068  16.0915649  19.6354640
  77.7574341  17.1444372  18.7579445  77.7129782  16.3748892  18.9043156
  75.6541471  22.8619546  24.7068338  75.6137325  22.2169223  24.1213494
  76.4664789  22.8056163  25.0193750  75.7684624  22.7578513  24.6665287
  72.2448938  28.9138272  14.6093489  71.8309337  28.2512402  14.2197331
  72.9296312  29.0616130  14.0889183  72.2847310  28.8378930  14.4749986
  75.6114232  28.0728357  15.3617106  75.2130516  28.1830627  14.5937926
  74.9965452  28.2810423  15.9443665  75.4613122  28.1201925  15.3348405
  71.3419179  16.4916482  21.2618096  70.8298082  15.8837665  21.6203127
  71.1698676  17.2073075  21.7292071  71.2408816  16.5079782  21.3834319
  66.1884894  14.9354058  23.9120458  66.0187484  15.5955432  23.3668664
  65.7450844  15.1460619  24.6332947  66.0984228  15.0640040  23.9382087
  75.2188250  14.4140727  23.7020351  75.7759680  14.1854536  23.0698817
  74.8949315  15.1746393  23.4255564  75.2534660  14.4924564  23.5676848
  63.0886959  17.8400923  19.1708947  62.5413678  17.1701569  19.2889816
  63.8779337  17.4730771  19.2352415  63.1239142  17.6865910  19.1977648
  72.9371367  17.5008380  24.6672358  73.6882694  17.8160057  24.9811913
  73.1293943  17.2987551  23.8406280  73.0762781  17.5175762  24.5915754
  61.8473928  17.0521731  16.3254970  61.6695689  16.5998340  17.0509886
  61.5592950  17.8547892  16.5093448  61.7786881  17.1044289  16.4598473
  63.5846398  19.5849455  13.4376729  62.7191917  19.5735145  13.3259501
  63.6845214  19.3979678  14.2847869  63.4720565  19.5555516  13.5465674
  69.2103408  29.3547353  17.0106835  69.5249967  30.1683742  17.0184617
  69.6196821  28.9697572  17.6788994  69.3171506  29.4176056  17.1110927
  76.1627927  24.7717400  14.5810647  76.6339106  25.4857663  14.7500632
  76.4988106  24.1716150  15.1170516  76.2823043  24.7888864  14.6843023
  78.2504912  26.3818713  26.7602719  78.3601878  25.5927274  27.1159466
  78.5795809  26.2924650  25.9577057  78.3157318  26.2524566  26.6945110
  76.8001874  24.5635334  21.3438340  76.2522820  23.9393218  21.0758405
  77.2614903  24.7529606  20.6282419  76.7869083  24.4994384  21.1988771
  70.7385869   9.5404046  19.7846635  71.2830282   9.1995173  20.3750977
  70.7922805  10.3989507  19.9267920  70.8274989   9.6159305  19.8928509
  66.5516428  23.3020462  16.6585443  67.1561285  23.2616296  16.0299264
  66.3443740  24.1491614  16.6889499  66.6105325  23.4208464  16.5701560
  76.3660200  25.5686407  17.8747681  77.1858574  25.4249373  18.1363976
  76.0854278  26.1932606  18.4164119  76.4456943  25.6396759  17.9935620
  61.7867710  22.2855079  16.5284367  61.6891988  21.4751351  16.8374423
  62.5696580  22.2646873  16.1430635  61.8883847  22.1622170  16.5171229
  80.4214675  41.8489628  11.3580719  79.6697575  41.4705166  11.1296764
  80.8700687  41.8808061  10.6099529  80.3764342  41.7975235  11.2138221
  81.9999431  41.8608020  13.6243492  82.1009794  41.0508374  13.9340619
  81.4041176  41.7664966  12.9943170  81.9271970  41.7273048  13.5769730
  81.8400171  46.7785609  15.0258348  82.4837626  47.2198773  15.4154506
  82.1656426  45.9739035  14.9388606  81.9831999  46.7250804  15.0703825
  75.1964475  37.8828306  13.2495825  74.9614660  37.0495959  13.1428094
  75.3350116  38.1632972  12.4357026  75.1820138  37.8011810  13.1138180
  77.4954563  30.0514037  16.1480133  76.8759595  29.4606684  15.9790148
  77.3938427  30.6425472  15.5144456  77.3892238  30.0518119  16.0285123
  77.2223696  33.5966319  18.3923702  77.0982393  34.1828764  19.0273521
  77.8741980  33.1026514  18.6935977  77.2997345  33.6105123  18.5309631
  76.7581800  42.7613977  14.5252031  76.2749378  43.4864467  14.5011615
  77.5705118  43.0590107  14.6362189  76.8072548  42.9116331  14.5379311
  79.6125997  43.2770153  14.6772311  80.3146577  42.7622142  14.7345068
  79.5323480  43.6044304  15.4819186  79.7049758  43.2484379  14.8045103
  80.6604904  33.5145740  23.8052726  80.8325408  33.4051635  24.6538008
  81.1974261  34.1600145  23.5683919  80.7649908  33.5937742  23.8957823
  78.9376773  39.4676505  14.1857919  79.7765672  39.6999438  14.2331681
  78.9688542  38.5980816  14.1164955  79.0658490  39.3733451  14.1822564
  79.5629476  39.8877380  18.4871225  80.1027701  39.7448511  19.1574597
  78.8799422  40.2874131  18.8555251  79.5421630  39.9257051  18.6405647
  74.9666621  36.1077671  18.6405646  74.7005036  35.2916788  18.7996637
  74.9805185  36.1530826  17.7701162  74.9291343  35.9934576  18.5359128
  79.7165227  29.6456049  21.2872654  79.0237024  29.1753029  21.5333386
  80.3325555  29.4194354  21.8614361  79.7049757  29.5423181  21.4081807
  75.3760035  36.8936450  15.9217391  75.1935608  36.8683336  15.0689683
  76.1109704  37.3635388  15.9606299  75.4574098  36.9597813  15.8015309
  78.4405786  33.6121453  22.4299499  79.1645759  33.5974484  22.9164394
  78.5421923  34.3216808  21.9321468  78.5623995  33.7146156  22.4278286
  75.3430945  33.7729951  16.0716457  75.9204448  33.6366402  16.7108703
  74.6445007  33.3165735  16.3262042  75.3251966  33.6852217  16.2038747
  82.0998247  35.4264007  14.2854940  81.8417491  34.5935742  14.2586240
  82.1546730  35.6521620  13.4447441  82.0698025  35.3361778  14.1575077
  81.0732959  32.9801769  14.7719835  80.4982551  33.1393938  15.4083796
  80.6968636  32.3437178  14.3088286  80.9335772  32.9099582  14.7974394
  70.8189778  32.6241844  12.7864276  70.9050030  32.2473712  13.5677806
  71.4465576  32.2502290  12.3084234  70.9246329  32.5127326  12.8309753
  81.7153094  39.1545240  12.9561333  82.3527041  38.9156988  13.5013126
  82.1408166  39.3582399  12.2214493  81.8729261  39.1496251  12.9278490
  76.4065737  41.3933577  16.8395636  76.4469882  41.6648428  16.0115416
  76.9660261  41.9175485  17.2553424  76.4949083  41.5109332  16.7787525
  82.5224450  27.6553945  27.0098806  82.2077891  28.4253508  26.7468369
  82.2014382  27.0924201  26.4251033  82.4283369  27.6864214  26.8840156
  77.8580323  39.9775526  11.6649562  77.0318441  40.2237263  11.5383841
  77.9192314  39.8987607  12.5311621  77.7454490  40.0020475  11.7738507
  80.5785068  44.5719789  12.4328742  80.3585363  44.2817143  13.2255409
  80.3579590  43.9134744  11.9046654  80.5132662  44.4319497  12.4717651
  79.4902015  36.6593105  14.6984444  79.2015263  36.0330576  15.2330171
  80.3585363  36.6013393  14.7649124  79.5762267  36.5580649  14.7875398
  79.6934288  38.2988356  10.6226809  80.4480256  38.6801395  10.8362271
  79.1004901  38.7499500  11.0773505  79.7171002  38.4217184  10.7209687
  81.0132515  39.4696917  15.9966924  80.4913268  39.6097209  16.6818789
  81.4006535  38.7107582  16.1869042  80.9936216  39.3782441  16.1268001
  78.4884987  35.7913747  20.6183423  79.0006084  36.0698000  19.9692183
  78.2021330  36.5303041  20.9846236  78.5219850  35.9416101  20.5773301
  75.5751893  30.2983939  10.9147160  75.6768030  31.1010100  11.2428135
  76.3707780  30.0971275  10.6170240  75.7079799  30.3869837  10.9182515
  76.3915626  30.4131117  18.6568281  76.2501117  29.5615058  18.7812789
  76.6756189  30.4559778  17.8330487  76.4123472  30.2930867  18.5535906
  81.5779000  43.1757698  19.0796780  81.7268564  42.6160613  18.4270184
  82.3579002  43.2549699  19.4629298  81.7153094  43.1043263  19.0393729
  77.1605931  28.3261465  21.9745732  76.6248120  27.7141823  22.2906499
  77.2223696  28.9009600  22.6279398  77.0901563  28.3208392  22.1181159
  79.2794687  35.7342199  11.7865787  79.4359306  35.6689001  12.6421779
  79.6195280  36.5090751  11.5744466  79.3527922  35.8391397  11.8820381
  75.8528948  32.9177149  12.1026554  76.2327913  33.3361694  11.4386821
  75.2784313  33.4990605  12.4095397  75.8240273  33.0655008  12.0503295
  79.4959750  34.4837554  16.7342048  78.6547756  34.3841428  16.9420942
  79.7049758  35.2533034  17.0856369  79.4024442  34.5829597  16.8169363
  76.9735317  32.1057091  14.5626799  76.5792014  32.1800103  13.7876908
  76.4175434  32.4915037  15.1135161  76.8338129  32.1738865  14.5294459
  81.3694766  39.6268674  20.6911743  81.2615120  39.6370736  21.5573801
  81.5790547  40.4523454  20.5016697  81.3844877  39.7509749  20.7915835
  79.3868558  36.8781316  18.1533681  78.7956491  37.5190814  18.1236696
  80.1489581  37.3018933  18.1264980  79.4116818  37.0357155  18.1448828
  79.7829180  28.0383314  18.8201699  80.2430662  28.1122243  19.5576822
  79.8285287  28.8364568  18.4701520  79.8579736  28.1677461  18.8774455
  81.4312530  28.7050009  23.3873726  81.0398095  28.0583356  23.8229503
  81.5998393  29.2961444  24.0067981  81.3983440  28.6964277  23.5436432
  76.5716958  31.6672505  21.1953415  77.4342571  31.5668214  21.1090745
  76.2408741  31.0867214  20.6338987  76.6502155  31.5664131  21.0998821
  79.9318744  30.4914954  17.8563833  79.3071814  30.5033346  17.2489786
  79.5964339  30.9675129  18.5055073  79.7904236  30.5633471  17.8620402
  76.6444420  38.5515414  19.2967597  76.1144344  37.8607853  19.3462572
  76.9169513  38.5425599  18.4680306  76.6069142  38.4482545  19.1815013
  79.2009490  32.1008101  20.0738702  79.3602976  31.3451426  20.4790423
  79.0202383  32.6499041  20.7279439  79.1974848  32.0701915  20.2301407
  71.9240262  35.2243178  16.6535946  71.8183711  35.1790022  15.7888030
  71.1740482  35.5696958  16.9350230  71.7975865  35.2684086  16.5673275
  80.6933994  26.6682501  16.5998546  80.7332366  27.1691708  17.3133253
  79.8683659  26.7592895  16.3304469  80.5773520  26.7564317  16.6649084
  82.1148358  33.1843011  18.8972445  81.2840287  33.3516829  18.6907693
  82.0599875  32.8078962  19.6821330  81.9837773  33.1532742  18.9820973
  79.9232141  26.6751904  24.5328856  80.5484844  26.1314037  24.8058288
  79.4682621  26.1946821  23.9636646  79.9480402  26.5241385  24.4890449
  77.0237612  34.5233554  10.0244685  77.5329841  35.1198062  10.4055991
  77.4971884  34.2559528   9.3421105  77.1680987  34.5719370   9.9799208
  79.3828144  31.1589813  12.8917866  78.6640133  31.5753945  13.1590729
  79.7540506  31.7244052  12.3409504  79.3320075  31.3039094  12.8500673
  82.3151763  32.0101790  21.2618096  81.8030666  31.4022973  21.6203127
  82.1431259  32.7258383  21.7292071  82.2141400  32.0265090  21.3834319
  77.1617478  30.4539366  23.9120458  76.9920068  31.1140740  23.3668664
  76.7183428  30.6645927  24.6332947  77.0716811  30.5825348  23.9382087
  74.0619542  33.3586231  19.1708947  73.5146262  32.6886877  19.2889816
  74.8511920  32.9916079  19.2352415  74.0971726  33.2051218  19.1977648
  72.8206512  32.5707039  16.3254970  72.6428273  32.1183648  17.0509886
  72.5325534  33.3733200  16.5093448  72.7519465  32.6229597  16.4598473
  74.5578981  35.1034763  13.4376729  73.6924501  35.0920453  13.3259501
  74.6577797  34.9164986  14.2847869  74.4453148  35.0740824  13.5465674
  80.1835991  44.8732661  17.0106835  80.4982550  45.6869050  17.0184617
  80.5929405  44.4882880  17.6788994  80.2904089  44.9361364  17.1110927
  81.7118453  25.0589354  19.7846635  82.2562866  24.7180481  20.3750977
  81.7655388  25.9174815  19.9267920  81.8007572  25.1344613  19.8928509
  77.5249012  38.8205770  16.6585443  78.1293869  38.7801604  16.0299264
  77.3176324  39.6676922  16.6889499  77.5837909  38.9393772  16.5701560
  72.7600294  37.8040387  16.5284367  72.6624572  36.9936659  16.8374423
  73.5429164  37.7832181  16.1430635  72.8616430  37.6807477  16.5171229
  81.7922362  48.1427152  12.7864276  81.8782614  47.7659020  13.5677806
  82.4198159  47.7687597  12.3084234  81.8978913  48.0312634  12.8309753
   1.6361874  33.6529452  69.6220408   1.5686375  33.6725411  68.7522995
   1.6217537  34.4959779  69.8476079   1.6240631  33.7803186  69.5272885
   6.6575419  47.6078849  62.8295730   6.6269424  48.4623486  63.0014000
   7.2556768  47.3074142  63.3881874   6.7412577  47.6895346  62.9370533
   2.7026925  48.7546544  70.2280312   3.2482885  49.4331631  70.2874282
   2.6443802  48.6134005  69.3681894   2.7742840  48.8338546  70.1092373
   4.4791994  50.1831152  61.1014040   4.3631520  50.9338838  61.5306178
   5.2747881  49.9255105  61.3510127   4.5796583  50.2565998  61.2018132
   2.2021299  50.9138796  59.4128330   2.1172595  51.7699762  59.5577899
   2.6905683  50.6383120  60.0810489   2.2610197  50.9996117  59.5330412
   3.7927299  37.5319089  64.7988655   3.4780740  38.2222568  65.2309077
   3.2754240  37.4763871  64.0974155   3.6691769  37.6253978  64.7585604
   3.1339733  47.5323590  60.9126065   2.6051204  47.7483224  61.5723371
   3.6564753  48.2259728  60.8327034   3.1328186  47.6666727  60.9981664
   8.5887786  53.1069894  66.2859110   7.7585489  53.3180538  66.4492526
   8.5397038  52.2806949  66.0101393   8.4594521  53.0159501  66.2696475
   8.0841744  45.7540295  70.0809531   7.2470165  45.8242482  70.3157125
   8.0529975  45.7564790  69.2083833   7.9560026  45.7650522  69.9869079
   2.8071930  49.9495972  65.6721422   3.5629445  50.3827486  65.7110331
   2.9134254  49.3000741  66.2456058   2.9342100  49.9173455  65.7619448
   5.8452101  53.7769249  66.4223825   5.4087333  53.7805991  67.1782797
   5.5115016  54.4574748  65.9903403   5.7314721  53.8781705  66.4704658
   5.7649584  40.8183077  68.6653253   6.4075492  40.8881181  69.2515169
   6.0172604  40.1512300  68.1632795   5.8971716  40.7309425  68.6780533
   8.9796447  50.4950169  65.3143463   9.6412881  49.9340837  65.2139371
   8.3387859  50.0002199  65.6396154   8.9825314  50.3386578  65.3475803
   5.2661278  51.5115551  65.0555451   5.5016867  51.6560750  64.2282302
   5.4150841  52.2757959  65.4486965   5.3227081  51.6454606  64.9919055
   7.0951734  50.3517217  62.8925055   7.4259952  50.8844857  62.2865150
   7.6684823  50.4056105  63.5487006   7.2285414  50.4386786  62.9002837
   2.3083624  48.1982120  63.5748635   2.4030478  48.9371414  64.0288261
   1.6842467  47.7699595  64.0083200   2.2292654  48.2443440  63.7056783
   2.5606645  50.0430860  56.8085587   2.4786807  50.1133047  57.6740574
   3.1986365  50.6060604  56.6169328   2.6426482  50.1369831  56.9075537
   8.2031086  45.5927714  64.3965217   7.9467651  44.7807655  64.2063100
   9.0460400  45.6005281  64.1695404   8.2897111  45.4739711  64.3350034
   2.3834178  39.5327338  69.1341371   2.7644690  38.8505509  69.5209245
   1.5797463  39.2436940  68.9517035   2.3210640  39.3894387  69.1645427
   6.9092666  52.5321759  70.2952064   6.6038483  53.2649816  70.6565380
   6.1898882  52.1259688  70.0144850   6.7580008  52.5803492  70.3065201
  12.6094458  49.1714759  69.6220408  12.5418958  49.1910719  68.7522995
  12.5950120  50.0145087  69.8476079  12.5973214  49.2988494  69.5272885
   3.0190804  40.5749917  72.9461498   3.7644396  40.3859728  72.5324923
   2.6028109  41.1008155  72.3875354   3.0675779  40.6252063  72.8026071
  10.3953075  47.9459146  67.8967003  10.9460997  47.3127215  68.1364095
  10.3797191  48.4774538  68.5882507  10.4738272  47.9308094  68.0345861
   4.0981482  46.1855479  67.0071599   3.7546247  45.4645815  67.3578848
   4.1974524  45.9769331  66.1649957   4.0623524  46.0479683  66.9343279
   4.5594511  52.6481183  62.5495587   5.1252543  53.3074393  62.4654130
   3.9122414  52.9930881  63.0211989   4.5473267  52.7963125  62.6068343
   1.0301089  55.5919968  61.9732666   0.7887765  54.8587828  61.5659731
   1.2102422  56.1406825  61.3198999   1.0208713  55.5642359  61.8162889
   2.6172447  44.1047064  68.8831142   1.7783548  44.1308343  68.6469405
   2.6876814  44.7517800  69.4636488   2.5040840  44.2043190  68.9340259
   1.0641725  41.0032441  63.6158758   1.7668078  40.8040189  63.1378716
   0.7985914  40.2308383  63.9227601   1.1288358  40.8595407  63.5904199
   6.4929971  49.3115051  66.1692383   6.4063945  49.4670477  67.0227162
   6.0380451  49.9553126  65.7951788   6.4133227  49.4290806  66.2399490
   4.2603836  53.3409157  68.5804724   4.1218195  54.0390203  69.0853467
   3.4803834  53.1857814  68.2240906   4.1247063  53.4209324  68.6030998
   5.7557209  52.6987411  59.3421223   5.3764017  51.9124549  59.3350513
   5.0923454  53.2474268  59.1992868   5.6015683  52.6632235  59.3202020
   3.2101834  35.6413111  66.7455304   3.3285403  36.0989574  66.0122607
   3.0364010  34.8358372  66.4591522   3.2021005  35.5906883  66.5956238
   1.1022777  53.2813114  55.1609999   1.8695762  53.3413239  54.7515851
   0.6554086  52.7093555  54.6766318   1.1496204  53.2049690  55.0287709
   2.0000573  52.0867770  67.4462731   1.3245575  51.8553002  67.9476118
   2.0092949  51.4788953  66.8204836   1.9019077  51.9626695  67.4278884
   4.0017307  54.9432902  59.6772909   4.0837145  55.7499888  59.3534360
   4.4867049  54.9628861  60.4013683   4.0854465  55.0653565  59.7359808
   2.1969337  57.3082726  64.1440844   1.8049129  57.0049441  63.4263710
   2.3522410  58.1451816  63.9545798   2.1622927  57.3866563  64.0097341
   2.9503758  45.9953043  73.6369930   2.1380439  45.6878933  73.7183103
   3.4093692  45.5152043  74.2012643   2.8984142  45.8789535  73.7324525
   2.3609012  53.8732715  64.0846875   2.0023667  54.0447358  64.8610907
   1.8747723  54.3345920  63.5274873   2.2367709  53.9671686  64.1172144
   5.2470752  46.6125757  69.5979991   4.8198360  46.5252105  68.8428091
   4.6096805  46.7203532  70.1834835   5.0900359  46.6158416  69.5725433
   2.4301832  39.4665976  66.2335851   2.6351426  39.3988284  67.0792848
   2.1028256  40.2724797  66.1657028   2.4117080  39.5751916  66.3495506
   5.6835520  40.0197740  65.7138616   5.0709834  40.5068142  66.0992348
   5.7799695  39.3441231  66.2576268   5.6073418  39.9916049  65.8517475
   9.3260548  51.0914677  71.1416132   9.3843672  51.5401325  71.8876109
   8.6927016  51.5013489  70.7046212   9.2411843  51.2188411  71.1868681
   6.2782228  49.1130964  69.2281823   6.0380450  48.2737380  69.2324249
   6.7574235  49.1931131  69.9522596   6.3134411  49.0012364  69.3356625
   1.9428997  44.9465143  60.8800796   1.4152015  45.0293887  60.1906505
   2.4024705  45.6883015  60.8765441   1.9330847  45.0685806  60.7775491
   8.2787415  45.8932422  67.1811082   8.0397184  45.8528256  66.3431867
   8.4421316  46.7403574  67.3076803   8.2677718  46.0124507  67.0764564
   4.8833445  50.2782371  73.1116127   5.6067644  49.8254897  72.9327147
   4.6183407  50.5587037  72.3288455   4.9514718  50.2533339  72.9694842
   1.4966079  53.5168707  60.0110453   2.2200278  53.9826820  59.8675026
   1.0566670  53.5842316  59.2608050   1.5381771  53.5952544  59.8795235
   7.3168759  49.2408782  71.6146677   7.9086599  49.8806032  71.6464875
   7.7527753  48.5431818  71.9038744   7.4687190  49.2327132  71.6627509
   1.3124331  42.0279474  71.0829234   1.7379402  41.5752000  70.4712760
   0.6981324  41.4739544  71.3594021   1.2852976  41.8793450  71.0334259
   1.7569929  57.5789412  60.1708514   1.0399238  57.4050274  59.7055752
   2.4076666  57.3441984  59.6384000   1.7471779  57.5185204  60.0237732
   4.3417900  46.4554000  63.9149819   3.6709090  46.9983703  63.7862885
   5.0357650  46.9248856  63.6731514   4.3446768  46.6052272  63.8605347
   4.5046027  42.9109884  66.8240192   4.8573638  42.4839607  67.4985991
   3.6460829  42.8260728  66.9541269   4.4295472  42.8354625  66.9435203
   2.5029293  46.1745253  70.7725035   2.4827221  45.9928548  71.6259814
   2.5508494  47.0457271  70.7484618   2.5063934  46.2761791  70.8948329
   5.9370088  38.0328296  67.7524505   5.4300952  37.3257435  67.6845682
   6.7337521  37.7021485  67.8825582   5.9797327  37.8801447  67.7623500
   1.8534103  44.5394908  63.6498169   1.6247796  44.5627610  62.8076527
   2.1132180  43.7152375  63.7693179   1.8580291  44.4210988  63.5423366
   8.1390227  52.5493222  60.7365369   8.5223833  53.2984579  60.9663466
   7.3434341  52.7959042  60.4777358   8.0784010  52.6962916  60.7322943
   4.5790810  43.5294845  63.9001327   4.5785036  43.3743502  64.7585603
   4.3746990  44.3757832  63.8442713   4.5490587  43.6315466  64.0189266
   2.3031662  48.2092347  67.5537534   2.7985327  47.4915342  67.5141554
   1.4931437  47.9063145  67.4392021   2.2575555  48.0589993  67.5311260
   4.3683481  50.9596035  70.2414663   4.7938552  50.4370456  69.6885088
   4.0040400  51.5576872  69.7203286   4.3770083  50.9706262  70.0823672
   0.9562080  54.6730299  66.5715820   1.4273258  55.3870561  66.7405805
   1.2922258  54.0729049  67.1075690   1.0757195  54.6901763  66.6748196
   4.4029891  42.5333588  70.7194705   3.8192879  43.0342794  70.3072272
   4.7234185  42.0263144  70.0859028   4.3643066  42.5325423  70.5653212
  17.6308003  63.1264157  62.8295730  17.6002007  63.9808794  63.0014000
  18.2289352  62.8259450  63.3881874  17.7145161  63.2080654  62.9370533
  10.8307688  62.2139808  67.5848661   9.9745583  62.3748307  67.6357778
  10.8775342  61.3431872  67.6053722  10.7106799  62.1090610  67.5954727
  10.6673787  72.1727896  58.7771439  10.3325156  72.8504817  58.3415662
  11.1800658  71.7833207  58.1888311  10.6939369  72.2152474  58.6258231
  13.6759509  64.2731852  70.2280312  14.2215469  64.9516939  70.2874282
  13.6176385  64.1319313  69.3681894  13.7475423  64.3523854  70.1092373
  15.4524577  65.7016459  61.1014040  15.3364103  66.4524146  61.5306178
  16.2480464  65.4440413  61.3510127  15.5529167  65.7751306  61.2018132
   7.3354903  69.6910482  62.3883383   7.6570744  70.2315690  61.7844691
   7.9827000  69.1207254  62.5205672   7.4780958  69.6869658  62.3190418
   9.3856611  61.6926477  62.4717769  10.0836776  61.8714605  62.9639233
   9.7008944  61.1696817  61.8488159   9.5351948  61.6420250  62.4519779
   9.5744546  68.0796922  62.4597561  10.0138182  67.4714023  62.9052334
   9.4249209  67.7004296  61.6883026   9.6166012  67.9335394  62.4116728
   7.5583475  57.0618874  66.5539044   7.2286805  57.5130018  65.8842743
   6.8828476  56.9835037  67.1012050   7.4093911  57.1170009  66.5362267
  13.1753883  66.4324104  59.4128330  13.0905178  67.2885070  59.5577899
  13.6638266  66.1568428  60.0810489  13.2342780  66.5181425  59.5330412
  14.7659882  53.0504397  64.7988655  14.4513323  53.7407876  65.2309077
  14.2486824  52.9949179  64.0974155  14.6424353  53.1439286  64.7585604
  14.1072316  63.0508898  60.9126065  13.5783788  63.2668531  61.5723371
  14.6297336  63.7445036  60.8327034  14.1060769  63.1852035  60.9981664
  19.5620369  68.6255202  66.2859110  18.7318072  68.8365846  66.4492526
  19.5129621  67.7992257  66.0101393  19.4327105  68.5344809  66.2696475
   5.9971924  66.9472115  59.7133533   5.4129139  67.4522146  60.1199397
   5.5942019  66.7214502  58.9730125   5.8511228  66.9880363  59.6638558
  10.4549138  63.1937767  58.1902454  10.6945142  63.4015751  57.3777797
  10.7764979  62.3895275  58.2991398  10.5386296  63.1051868  58.0863007
   5.7639429  55.1231163  62.0361992   6.5185397  55.4909480  61.7979042
   5.5866963  55.4970717  62.8041171   5.8493907  55.2329350  62.1146880
  19.0574327  61.2725603  70.0809531  18.2202748  61.3427790  70.3157125
  19.0262558  61.2750098  69.2083833  18.9292610  61.2835830  69.9869079
   4.1196493  57.5301481  58.7340105   3.9372067  57.7473362  57.9081097
   4.9822106  57.6440494  58.7898719   4.2201083  57.5791379  58.6194592
   9.7996213  54.5327892  61.7689128  10.5282373  54.3543847  61.3227285
   9.8891105  55.3745972  61.9796307   9.9202875  54.6311771  61.7342646
  13.7804513  65.4681280  65.6721422  14.5362028  65.9012794  65.7110331
  13.8866838  64.8186049  66.2456058  13.9074684  65.4358763  65.7619448
  16.8184684  69.2954557  66.4223825  16.3819916  69.2991299  67.1782797
  16.4847600  69.9760056  65.9903403  16.7047304  69.3967013  66.4704658
  16.7382167  56.3368385  68.6653253  17.3808076  56.4066489  69.2515169
  16.9905188  55.6697608  68.1632795  16.8704299  56.2494733  68.6780533
   3.6658520  60.8075654  57.2462578   2.9516698  60.5213834  57.6585010
   4.1502489  61.1472280  57.8868965   3.6317884  60.8157304  57.4018213
  19.9529031  66.0135477  65.3143463  20.6145465  65.4526145  65.2139371
  19.3120443  65.5187507  65.6396154  19.9557898  65.8571886  65.3475803
  10.8405838  69.3105608  57.6224386  11.2556987  68.9790632  56.9308882
  10.0097768  69.0774510  57.4944523  10.7793847  69.2276864  57.5015233
  16.2393861  67.0300859  65.0555451  16.4749450  67.1746058  64.2282302
  16.3883425  67.7943267  65.4486965  16.2959665  67.1639913  64.9919055
  18.0684318  65.8702525  62.8925055  18.3992535  66.4030165  62.2865150
  18.6417406  65.9241413  63.5487006  18.2017997  65.9572094  62.9002837
  13.2816207  63.7167428  63.5748635  13.3763062  64.4556722  64.0288261
  12.6575051  63.2884903  64.0083200  13.2025237  63.7628748  63.7056783
  13.5339228  65.5616168  56.8085587  13.4519391  65.6318355  57.6740574
  14.1718949  66.1245911  56.6169328  13.6159066  65.6555139  56.9075537
   6.8932400  65.3276905  66.2760114   6.6351644  64.4948640  66.2491413
   6.9480882  65.5534518  65.4352614   6.8632177  65.2374677  66.1480250
  11.9733450  57.4305356  66.3764206  11.2689776  56.9414542  66.5348125
  12.0218424  57.4427831  65.5052651  11.8763501  57.3595004  66.2703546
  19.1763670  61.1113022  64.3965217  18.9200234  60.2992963  64.2063100
  20.0192983  61.1190589  64.1695404  19.2629695  60.9925019  64.3350034
  13.3566762  55.0512646  69.1341371  13.7377274  54.3690817  69.5209245
  12.5530046  54.7622248  68.9517035  13.2943224  54.9079694  69.1645427
  10.6379339  65.5836622  59.8194194  11.4519977  65.8751515  59.7076965
  10.5738480  64.9296484  59.2452487  10.7482078  65.5301817  59.7183031
   7.1490062  64.2760429  59.2841395   7.5335215  64.0568136  60.0357940
   6.9001682  65.1023374  59.4142472   7.1692135  64.3658575  59.4142472
  17.8825249  68.0507067  70.2952064  17.5771066  68.7835124  70.6565380
  17.1631465  67.6444996  70.0144850  17.7312592  68.0988800  70.3065201
  23.5827042  64.6900067  69.6220408  23.5151542  64.7096027  68.7522995
  23.5682704  65.5330395  69.8476079  23.5705798  64.8173802  69.5272885
   4.8690499  55.9457366  64.6150176   4.0012925  56.0179965  64.6807785
   5.1565704  56.7479445  64.8038151   4.7830247  56.0751513  64.6524942
  13.9923388  56.0935225  72.9461498  14.7376980  55.9045035  72.5324923
  13.5760693  56.6193463  72.3875354  14.0408362  56.1437370  72.8026071
   7.4313305  72.4965305  61.3573766   7.7211603  72.1054286  60.6332992
   8.1616785  72.6782010  61.7979041   7.5820189  72.4659119  61.3156573
  21.3685659  63.4644454  67.8967003  21.9193580  62.8312523  68.1364095
  21.3529774  63.9959846  68.5882507  21.4470855  63.4493402  68.0345861
  15.0714065  61.7040787  67.0071599  14.7278831  60.9831122  67.3578848
  15.1707108  61.4954638  66.1649957  15.0356108  61.5664991  66.9343279
  15.5327094  68.1666491  62.5495587  16.0985127  68.8259701  62.4654130
  14.8854998  68.5116189  63.0211989  15.5205851  68.3148433  62.6068343
   2.7957851  59.4215625  62.0567052   2.5082647  59.0516895  61.3198999
   3.4828320  59.8910480  61.7950757   2.8546749  59.4362594  61.9082128
  12.0033672  71.1105276  61.9732666  11.7620348  70.3773136  61.5659731
  12.1835005  71.6592133  61.3198999  11.9941296  71.0827667  61.8162889
   7.2332993  66.4013835  63.3853588   7.0375776  67.0088570  62.7913891
   7.4567339  65.7081779  62.9045262   7.2367634  66.3891361  63.2269669
   5.6311523  63.2868573  63.5034457   6.3534175  63.4509731  63.0438263
   5.1519516  64.0078238  63.3973797   5.6675254  63.4166803  63.4200071
  13.5905031  59.6232372  68.8831142  12.7516131  59.6493651  68.6469405
  13.6609398  60.2703107  69.4636488  13.4773424  59.7228498  68.9340259
  12.0374309  56.5217749  63.6158758  12.7400662  56.3225497  63.1378716
  11.7718498  55.7493691  63.9227601  12.1020941  56.3780715  63.5904199
  17.4662554  64.8300359  66.1692383  17.3796529  64.9855785  67.0227162
  17.0113034  65.4738434  65.7951788  17.3865811  64.9476114  66.2399490
  11.3388370  62.1511106  64.7917943  11.0923085  62.0706857  65.6254732
  11.6673493  61.3664574  64.5980470  11.3509614  62.0237371  64.8865466
  15.2336419  68.8594465  68.5804724  15.0950779  69.5575511  69.0853467
  14.4536417  68.7043122  68.2240906  15.0979646  68.9394632  68.6030998
  16.7289792  68.2172719  59.3421223  16.3496601  67.4309857  59.3350513
  16.0656038  68.7659576  59.1992868  16.5748267  68.1817543  59.3202020
  14.1834418  51.1598419  66.7455304  14.3017986  51.6174882  66.0122607
  14.0096594  50.3543680  66.4591522  14.1753589  51.1092191  66.5956238
   9.5536700  71.7686238  63.1810050  10.3186591  71.4995882  62.8592714
   9.4514790  71.2836248  63.8980112   9.6518196  71.6575803  63.2389877
  12.0755361  68.7998422  55.1609999  12.8428346  68.8598547  54.7515851
  11.6286670  68.2278863  54.6766318  12.1228788  68.7234998  55.0287709
  12.9733156  67.6053078  67.4462731  12.2978158  67.3738310  67.9476118
  12.9825532  66.9974261  66.8204836  12.8751661  67.4812003  67.4278884
  14.9749891  70.4618210  59.6772909  15.0569728  71.2685196  59.3534360
  15.4599633  70.4814169  60.4013683  15.0587049  70.5838872  59.7359808
  10.6107984  65.0112981  62.6464323  11.1523529  64.5083362  63.1102944
  10.9254543  64.9578176  61.8353808  10.7372381  64.9292402  62.5948135
   8.7794433  70.4030333  59.9304351   8.8487254  69.5444871  60.0697351
   9.5582889  70.6202213  59.6023376   8.9047284  70.3083196  59.9021508
  13.1701921  72.8268034  64.1440844  12.7781713  72.5234749  63.4263710
  13.3254993  73.6637124  63.9545798  13.1355511  72.9051871  64.0097341
  13.9236341  61.5138351  73.6369930  13.1113023  61.2064241  73.7183103
  14.3826276  61.0337351  74.2012643  13.8716726  61.3974843  73.7324525
  13.3341596  69.3918023  64.0846875  12.9756251  69.5632666  64.8610907
  12.8480307  69.8531228  63.5274873  13.2100293  69.4856994  64.1172144
  11.1511982  53.0149221  67.6873966  10.2805540  52.9887942  67.6407276
  11.4052323  52.8426413  66.8699812  11.0605542  52.9859365  67.5594103
   8.1229961  65.0717188  56.6247109   8.4122486  65.8482071  56.8990684
   8.2101760  64.5605919  57.3261609   8.1784217  65.1109106  56.7689607
   8.1761122  55.0255450  69.1447437   7.6599611  54.3335641  69.2699016
   7.6155051  55.6926227  69.0910035   8.0167636  55.0218707  69.1553503
  10.2453356  55.5648410  70.9740289   9.8585109  55.5897441  71.7553819
   9.7586293  54.9990088  70.5214806  10.1165865  55.4844160  71.0228193
  16.2203335  62.1311065  69.5979991  15.7930943  62.0437413  68.8428091
  15.5829388  62.2388840  70.1834835  16.0632943  62.1343724  69.5725433
   9.9110497  52.4515395  73.2650549  10.5403615  52.9875695  72.9871619
  10.0796360  52.3592754  74.1164115  10.0288292  52.5176757  73.3499077
  13.4034416  54.9851284  66.2335851  13.6084009  54.9173591  67.0792848
  13.0760840  55.7910105  66.1657028  13.3849664  55.0937224  66.3495506
   8.1010567  62.3131852  67.9744819   7.7973705  61.7587840  68.5755227
   7.3989988  62.4924062  67.4872853   7.9526777  62.2576634  67.9914524
   7.1576664  59.6232372  62.5389521   7.4336398  58.9051284  62.1267088
   7.7575333  60.2217292  62.3310627   7.2869929  59.6052742  62.4470282
  16.6568104  55.5383048  65.7138616  16.0442417  56.0253450  66.0992348
  16.7532279  54.8626539  66.2576268  16.5806001  55.5101357  65.8517475
  10.6587185  57.2945889  60.8136116  11.1130931  57.4656449  61.5383960
  11.1327230  56.6814000  60.4133891  10.7955505  57.2296774  60.8609877
  20.2993132  66.6099985  71.1416132  20.3576255  67.0586633  71.8876109
  19.6659599  67.0198797  70.7046212  20.2144427  66.7373719  71.1868681
   8.0000205  63.9988423  61.9181123   8.7442250  64.3862700  62.1564073
   8.1460901  63.1545849  62.0821611   8.1310790  63.9318896  61.9775093
   9.9179780  55.7938682  66.9512984   9.0715825  55.9661490  66.8254334
   9.9150913  54.9888026  67.2878813   9.7926930  55.6999711  66.9824111
  10.9878081  59.5713897  67.8175042  10.5138035  59.0455659  68.3280353
  11.3596216  59.0243369  67.2489904  10.9727969  59.4129893  67.8090189
  17.2514811  64.6316272  69.2281823  17.0113034  63.7922687  69.2324249
  17.7306818  64.7116439  69.9522596  17.2866995  64.5197672  69.3356625
  12.9161580  60.4650451  60.8800796  12.3884599  60.5479195  60.1906505
  13.3757288  61.2068323  60.8765441  12.9063431  60.5871114  60.7775491
  19.2519998  61.4117730  67.1811082  19.0129768  61.3713564  66.3431867
  19.4153899  62.2588882  67.3076803  19.2410302  61.5309815  67.0764564
  15.8566028  65.7967679  73.1116127  16.5800227  65.3440205  72.9327147
  15.5915991  66.0772344  72.3288455  15.9247302  65.7718647  72.9694842
   4.9094645  58.7352971  55.9041691   4.5607450  59.3872696  56.3673241
   4.4291091  58.7210084  55.1765562   4.7864889  58.8296024  55.8652782
  12.4698663  69.0354015  60.0110453  13.1932862  69.5012128  59.8675026
  12.0299254  69.1027624  59.2608050  12.5114355  69.1137851  59.8795235
  11.9363945  54.1682236  72.6194664  11.4404506  54.3645910  71.9286231
  12.6933007  54.5674904  72.4483466  11.9750770  54.2559970  72.4914801
   9.2066825  57.8424582  69.2097975   9.2309312  57.3084694  68.5210755
   9.4578298  57.3341890  69.8723565   9.2476743  57.6885486  69.2062619
   5.4868147  56.5695400  68.5903719   5.5266518  57.0704606  69.3038426
   4.6617811  56.6605794  68.3209642   5.3707673  56.6577216  68.6554257
   5.2818554  61.3611501  61.4167736   5.4221515  61.8583965  62.1196377
   5.7801087  60.6597796  61.5581949   5.3759635  61.3313480  61.5419315
   5.3118776  62.2278612  58.7460313   5.9463856  62.8239037  58.6809774
   5.3944387  61.9282070  59.5606183   5.4175327  62.2719520  58.8563399
  18.2901342  64.7594090  71.6146677  18.8819182  65.3991340  71.6464875
  18.7260337  64.0617126  71.9038744  18.4419773  64.7512440  71.6627509
   6.8897759  58.1592588  58.7205755   7.2113600  57.6795670  58.0665017
   7.1524703  58.9692234  58.5296566   6.9763785  58.2082486  58.5961247
  12.2856914  57.5464782  71.0829234  12.7111986  57.0937308  70.4712760
  11.6713907  56.9924852  71.3594021  12.2585560  57.3978758  71.0334259
   1.8171764  64.4246453  62.0149859   2.3263994  65.0210961  62.3961164
   2.2906037  64.1572427  61.3326278   1.9615140  64.4732268  61.9704381
  12.7302512  73.0974720  60.1708514  12.0131822  72.9235582  59.7055752
  13.3809250  72.8627292  59.6384000  12.7204363  73.0370512  60.0237732
  10.7251137  54.0179881  64.4919811  10.0819455  53.8677528  65.0604949
  10.3850544  53.7722227  63.7268915  10.5796214  53.9592004  64.4622826
  15.3150484  61.9739308  63.9149819  14.6441673  62.5169011  63.7862885
  16.0090234  62.4434164  63.6731514  15.3179351  62.1237579  63.8605347
   4.1762296  61.0602712  64.8823039   3.4574285  61.4766844  65.1495903
   4.5474658  61.6256950  64.3314677   4.1254228  61.2051993  64.8405846
  13.4761877  61.6930560  70.7725035  13.4559804  61.5113856  71.6259814
  13.5241078  62.5642579  70.7484618  13.4796518  61.7947099  70.8948329
   9.9508870  60.1000711  60.2196418   9.3573710  60.4217708  59.6680986
   9.9884148  59.2541807  60.0117525   9.8683260  60.0225040  60.1079190
  16.9102671  53.5513604  67.7524505  16.4033536  52.8442743  67.6845682
  17.7070105  53.2206793  67.8825582  16.9529910  53.3986755  67.7623500
  12.8266687  60.0580216  63.6498169  12.5980380  60.0812917  62.8076527
  13.0864763  59.2337683  63.7693179  12.8312875  59.9396296  63.5423366
   5.8811449  58.5956762  64.9452364   6.3568816  58.9573842  64.3102546
   5.3800049  59.2513230  65.2252507   5.8776808  58.7450951  64.8929105
  19.1122811  68.0678530  60.7365369  19.4956417  68.8169887  60.9663466
  18.3166924  68.3144350  60.4777358  19.0516593  68.2148224  60.7322943
   7.9238103  60.7397962  58.3125748   8.3037067  60.7577591  57.5276863
   7.1830699  61.1851951  58.1916596   7.8706940  60.8079737  58.1789317
  15.5523393  59.0480153  63.9001327  15.5517620  58.8928810  64.7585603
  15.3479573  59.8943140  63.8442713  15.5223171  59.1500774  64.0189266
  13.2764245  63.7277655  67.5537534  13.7717911  63.0100650  67.5141554
  12.4664021  63.4248453  67.4392021  13.2308138  63.5775301  67.5311260
   8.7222857  67.5775468  59.7034538   7.9134179  67.2542142  59.6567848
   9.2297766  66.8708690  59.6362787   8.6772524  67.4256785  59.6864833
  15.3416064  66.4781343  70.2414663  15.7671136  65.9555764  69.6885088
  14.9772984  67.0762180  69.7203286  15.3502667  66.4891570  70.0823672
  11.9294664  70.1915607  66.5715820  12.4005842  70.9055869  66.7405805
  12.2654842  69.5914357  67.1075690  12.0489779  70.2087071  66.6748196
   8.8464158  54.9643077  73.5273915   8.9792064  54.1674071  73.8554890
   9.2309311  55.4909480  74.1072191   8.9220487  54.9242994  73.6617418
  11.9196514  51.8873404  70.1255008  11.1142477  51.7771133  70.4422847
  11.7903249  51.9885859  69.2684874  11.7816647  51.8857074  70.0463049
  15.3762474  58.0518895  70.7194705  14.7925463  58.5528102  70.3072272
  15.6966768  57.5448452  70.0859028  15.3375650  58.0510730  70.5653212
   7.9157273  56.9659490  60.9953380   8.7372968  57.1357803  60.7535075
   7.4526924  57.1206751  60.2719677   7.9688436  57.0141223  60.8525024
  28.6040587  78.6449465  62.8295730  28.5734591  79.4994102  63.0014000
  29.2021935  78.3444758  63.3881874  28.6877744  78.7265962  62.9370533
  20.3589195  77.2111785  62.4717769  21.0569359  77.3899913  62.9639233
  20.6741527  76.6882125  61.8488159  20.5084532  77.1605557  62.4519779
  18.5316058  72.5804182  66.5539044  18.2019388  73.0315326  65.8842743
  17.8561060  72.5020345  67.1012050  18.3826495  72.6355317  66.5362267
  25.7392466  68.5689705  64.7988655  25.4245907  69.2593184  65.2309077
  25.2219408  68.5134487  64.0974155  25.6156936  68.6624593  64.7585604
  25.0804900  78.5694206  60.9126065  24.5516371  78.7853839  61.5723371
  25.6029920  79.2630344  60.8327034  25.0793353  78.7037343  60.9981664
  16.7372012  70.6416470  62.0361992  17.4917980  71.0094788  61.7979042
  16.5599547  71.0156025  62.8041171  16.8226491  70.7514658  62.1146880
  30.0306911  76.7910911  70.0809531  29.1935332  76.8613098  70.3157125
  29.9995142  76.7935406  69.2083833  29.9025193  76.8021138  69.9869079
  15.0929077  73.0486789  58.7340105  14.9104650  73.2658670  57.9081097
  15.9554690  73.1625802  58.7898719  15.1933666  73.0976687  58.6194592
  20.7728796  70.0513200  61.7689128  21.5014957  69.8729155  61.3227285
  20.8623689  70.8931280  61.9796307  20.8935458  70.1497079  61.7342646
  27.7114751  71.8553693  68.6653253  28.3540659  71.9251797  69.2515169
  27.9637772  71.1882915  68.1632795  27.8436883  71.7680041  68.6780533
  22.9466033  72.9490664  66.3764206  22.2422360  72.4599850  66.5348125
  22.9951008  72.9613139  65.5052651  22.8496085  72.8780312  66.2703546
  30.1496253  76.6298330  64.3965217  29.8932818  75.8178271  64.2063100
  30.9925567  76.6375897  64.1695404  30.2362279  76.5110327  64.3350034
  24.3299346  70.5697954  69.1341371  24.7109857  69.8876125  69.5209245
  23.5262630  70.2807556  68.9517035  24.2675807  70.4265002  69.1645427
  34.5559625  80.2085375  69.6220408  34.4884125  80.2281334  68.7522995
  34.5415288  81.0515703  69.8476079  34.5438382  80.3359110  69.5272885
  15.8423083  71.4642674  64.6150176  14.9745508  71.5365273  64.6807785
  16.1298287  72.2664753  64.8038151  15.7562831  71.5936821  64.6524942
  24.9655972  71.6120533  72.9461498  25.7109564  71.4230343  72.5324923
  24.5493276  72.1378771  72.3875354  25.0140946  71.6622678  72.8026071
  32.3418242  78.9829762  67.8967003  32.8926164  78.3497831  68.1364095
  32.3262358  79.5145154  68.5882507  32.4203439  78.9678710  68.0345861
  26.0446649  77.2226095  67.0071599  25.7011415  76.5016430  67.3578848
  26.1439691  77.0139946  66.1649957  26.0088692  77.0850298  66.9343279
  13.7690435  74.9400933  62.0567052  13.4815231  74.5702203  61.3198999
  14.4560903  75.4095788  61.7950757  13.8279332  74.9547902  61.9082128
  24.5637614  75.1417680  68.8831142  23.7248715  75.1678959  68.6469405
  24.6341981  75.7888415  69.4636488  24.4506008  75.2413806  68.9340259
  23.0106892  72.0403057  63.6158758  23.7133245  71.8410805  63.1378716
  22.7451081  71.2678999  63.9227601  23.0753525  71.8966023  63.5904199
  22.3120954  77.6696414  64.7917943  22.0655668  77.5892165  65.6254732
  22.6406077  76.8849882  64.5980470  22.3242198  77.5422679  64.8865466
  25.1567002  66.6783727  66.7455304  25.2750570  67.1360190  66.0122607
  24.9829177  65.8728988  66.4591522  25.1486173  66.6277499  66.5956238
  22.7329837  75.4234593  72.6986623  22.9471806  74.7845508  72.1449977
  22.1163736  75.8680417  72.2694485  22.6735166  75.3944737  72.5537055
  24.8968925  77.0323659  73.6369930  24.0845606  76.7249549  73.7183103
  25.3558859  76.5522659  74.2012643  24.8449309  76.9160151  73.7324525
  22.1244565  68.5334529  67.6873966  21.2538123  68.5073250  67.6407276
  22.3784907  68.3611721  66.8699812  22.0338125  68.5044673  67.5594103
  19.1493706  70.5440757  69.1447437  18.6332194  69.8520949  69.2699016
  18.5887635  71.2111535  69.0910035  18.9900219  70.5404015  69.1553503
  21.2185939  71.0833718  70.9740289  20.8317692  71.1082749  71.7553819
  20.7318877  70.5175396  70.5214806  21.0898448  71.0029468  71.0228193
  27.1935919  77.6496372  69.5979991  26.7663527  77.5622721  68.8428091
  26.5561972  77.7574148  70.1834835  27.0365526  77.6529032  69.5725433
  20.8843081  67.9700703  73.2650549  21.5136199  68.5061003  72.9871619
  21.0528944  67.8778062  74.1164115  21.0020876  68.0362065  73.3499077
  24.3767000  70.5036591  66.2335851  24.5816593  70.4358899  67.0792848
  24.0493423  71.3095413  66.1657028  24.3582247  70.6122532  66.3495506
  18.1309248  75.1417680  62.5389521  18.4068982  74.4236592  62.1267088
  18.7307917  75.7402599  62.3310627  18.2602512  75.1238050  62.4470282
  27.6300687  71.0568356  65.7138616  27.0175001  71.5438758  66.0992348
  27.7264862  70.3811847  66.2576268  27.5538585  71.0286664  65.8517475
  21.6319768  72.8131197  60.8136116  22.0863515  72.9841757  61.5383960
  22.1059814  72.1999308  60.4133891  21.7688088  72.7482082  60.8609877
  20.8912364  71.3123990  66.9512984  20.0448409  71.4846798  66.8254334
  20.8883496  70.5073334  67.2878813  20.7659514  71.2185019  66.9824111
  21.9610664  75.0899205  67.8175042  21.4870618  74.5640967  68.3280353
  22.3328800  74.5428677  67.2489904  21.9460553  74.9315201  67.8090189
  28.2247395  80.1501580  69.2281823  27.9845618  79.3107995  69.2324249
  28.7039402  80.2301747  69.9522596  28.2599578  80.0382980  69.3356625
  23.8894164  75.9835759  60.8800796  23.3617182  76.0664503  60.1906505
  24.3489872  76.7253631  60.8765441  23.8796014  76.1056422  60.7775491
  30.2252582  76.9303037  67.1811082  29.9862352  76.8898872  66.3431867
  30.3886483  77.7774189  67.3076803  30.2142885  77.0495122  67.0764564
  15.8827229  74.2538279  55.9041691  15.5340033  74.9058004  56.3673241
  15.4023675  74.2395392  55.1765562  15.7597473  74.3481332  55.8652782
  22.9096529  69.6867544  72.6194664  22.4137090  69.8831218  71.9286231
  23.6665591  70.0860212  72.4483466  22.9483353  69.7745277  72.4914801
  20.1799408  73.3609890  69.2097975  20.2041895  72.8270002  68.5210755
  20.4310882  72.8527198  69.8723565  20.2209327  73.2070793  69.2062619
  16.4600730  72.0880708  68.5903719  16.4999102  72.5889914  69.3038426
  15.6350395  72.1791101  68.3209642  16.3440256  72.1762524  68.6554257
  29.2633926  80.2779398  71.6146677  29.8551766  80.9176648  71.6464875
  29.6992920  79.5802434  71.9038744  29.4152357  80.2697748  71.6627509
  17.8630343  73.6777896  58.7205755  18.1846184  73.1980978  58.0665017
  18.1257287  74.4877542  58.5296566  17.9496368  73.7267794  58.5961247
  23.2589498  73.0650090  71.0829234  23.6844569  72.6122616  70.4712760
  22.6446491  72.5110160  71.3594021  23.2318143  72.9164066  71.0334259
  21.6983721  69.5365189  64.4919811  21.0552039  69.3862836  65.0604949
  21.3583128  69.2907535  63.7268915  21.5528798  69.4777312  64.4622826
  26.2883067  77.4924616  63.9149819  25.6174257  78.0354318  63.7862885
  26.9822817  77.9619472  63.6731514  26.2911935  77.6422887  63.8605347
  26.4511195  73.9480500  66.8240192  26.8038805  73.5210223  67.4985991
  25.5925996  73.8631343  66.9541269  26.3760639  73.8725240  66.9435203
  24.4494460  77.2115868  70.7725035  24.4292388  77.0299164  71.6259814
  24.4973661  78.0827887  70.7484618  24.4529101  77.3132407  70.8948329
  20.9241454  75.6186019  60.2196418  20.3306293  75.9403016  59.6680986
  20.9616732  74.7727115  60.0117525  20.8415843  75.5410348  60.1079190
  27.8835255  69.0698912  67.7524505  27.3766119  68.3628051  67.6845682
  28.6802688  68.7392100  67.8825582  27.9262494  68.9172063  67.7623500
  23.7999271  75.5765524  63.6498169  23.5712964  75.5998225  62.8076527
  24.0597347  74.7522991  63.7693179  23.8045459  75.4581604  63.5423366
  16.8544033  74.1142070  64.9452364  17.3301399  74.4759150  64.3102546
  16.3532633  74.7698538  65.2252507  16.8509392  74.2636259  64.8929105
  18.8970686  76.2583270  58.3125748  19.2769651  76.2762899  57.5276863
  18.1563282  76.7037259  58.1916596  18.8439524  76.3265045  58.1789317
  26.5255977  74.5665461  63.9001327  26.5250203  74.4114118  64.7585603
  26.3212157  75.4128448  63.8442713  26.4955755  74.6686082  64.0189266
  19.8196742  70.4828385  73.5273915  19.9524648  69.6859379  73.8554890
  20.2041895  71.0094788  74.1072191  19.8953071  70.4428302  73.6617418
  22.8929097  67.4058711  70.1255008  22.0875061  67.2956441  70.4422847
  22.7635833  67.5071167  69.2684874  22.7549230  67.4042382  70.0463049
  26.3495058  73.5704203  70.7194705  25.7658047  74.0713410  70.3072272
  26.6699352  73.0633760  70.0859028  26.3108233  73.5696038  70.5653212
  18.8889857  72.4844798  60.9953380  19.7105551  72.6543111  60.7535075
  18.4259508  72.6392059  60.2719677  18.9421019  72.5326531  60.8525024
  36.1299585  82.1969035  66.7455304  36.2483153  82.6545498  66.0122607
  35.9561761  81.3914296  66.4591522  36.1218756  82.1462807  66.5956238
   6.3526243  24.5456981  49.7635777   6.3220248  25.4001617  49.9354047
   6.9507592  24.2452273  50.3221921   6.4363401  24.6273477  49.8710579
   2.8619645  29.9019157  64.1249164   3.5686412  29.4071188  64.2536098
   3.0507580  30.3428239  63.3951822   2.9947550  29.8937508  64.0358209
   2.3977749  25.6924676  57.1620359   2.9433709  26.3709762  57.2214329
   2.3394625  25.5512136  56.3021941   2.4693664  25.7716677  57.0432420
   4.1742818  27.1209283  48.0354087   4.0582344  27.8716969  48.4646225
   4.9698705  26.8633236  48.2850174   4.2747407  27.1944130  48.1358179
   1.8972123  27.8516927  46.3468377   1.8123418  28.7077894  46.4917946
   2.3856507  27.5761251  47.0150536   1.9561021  27.9374248  46.4670458
   3.4878123  14.4697220  51.7328701   3.1731564  15.1600699  52.1649124
   2.9705064  14.4142003  51.0314202   3.3642593  14.5632109  51.6925650
   2.8290557  24.4701721  47.8466112   2.3002028  24.6861355  48.5063418
   3.3515577  25.1637860  47.7667081   2.8279010  24.6044858  47.9321711
   8.2838610  30.0448026  53.2199156   7.4536313  30.2558669  53.3832573
   8.2347862  29.2185080  52.9441440   8.1545345  29.9537632  53.2036522
   7.7792568  22.6918426  57.0149578   6.9420989  22.7620613  57.2497172
   7.7480799  22.6942921  56.1423880   7.6510850  22.7028653  56.9209126
   2.5022754  26.8874103  52.6061469   3.2580269  27.3205617  52.6450378
   2.6085078  26.2378873  53.1796105   2.6292924  26.8551587  52.6959495
   5.5402925  30.7147380  53.3563872   5.1038157  30.7184122  54.1122844
   5.2065840  31.3952879  52.9243450   5.4265545  30.8159836  53.4044705
   5.4600408  17.7561208  55.5993300   6.1026316  17.8259312  56.1855215
   5.7123428  17.0890431  55.0972842   5.5922540  17.6687557  55.6120579
   8.6747271  27.4328300  52.2483509   9.3363705  26.8718968  52.1479418
   8.0338683  26.9380331  52.5736201   8.6776138  27.2764709  52.2815850
   4.9612102  28.4493682  51.9895498   5.1967691  28.5938881  51.1622349
   5.1101665  29.2136090  52.3827012   5.0177905  28.5832737  51.9259102
   6.7902558  27.2895348  49.8265102   7.1210775  27.8222988  49.2205197
   7.3635646  27.3434236  50.4827053   6.9236237  27.3764917  49.8342884
   2.0034447  25.1360251  50.5088682   2.0981302  25.8749545  50.9628308
   1.3793291  24.7077726  50.9423247   1.9243478  25.1821572  50.6396830
   7.8981910  22.5305845  51.3305264   7.6418475  21.7185787  51.1403146
   8.7411224  22.5383412  51.1035451   7.9847935  22.4117843  51.2690081
   2.0785002  16.4705469  56.0681418   2.4595514  15.7883640  56.4549292
   1.2748287  16.1815071  55.8857082   2.0161464  16.3272518  56.0985474
   5.5807069  29.6855441  61.1663816   5.3445707  28.8543506  61.0475877
   6.2250298  29.6341048  61.7518660   5.6401740  29.5553129  61.2349710
   6.6043490  29.4699890  57.2292111   6.2989307  30.2027947  57.5905426
   5.8849705  29.0637819  56.9484897   6.4530832  29.5181623  57.2405248
  12.3045282  26.1092891  56.5560455  12.2369782  26.1288850  55.6863042
  12.2900944  26.9523218  56.7816126  12.2924038  26.2366625  56.4612932
   2.7141628  17.5128048  59.8801544   3.4595220  17.3237859  59.4664970
   2.2978933  18.0386286  59.3215401   2.7626603  17.5630194  59.7366118
  10.0903899  24.8837277  54.8307049  10.6411821  24.2505346  55.0704141
  10.0748015  25.4152670  55.5222554  10.1689096  24.8686225  54.9685908
   3.7932305  23.1233611  53.9411646   3.4497071  22.4023946  54.2918895
   3.8925348  22.9147462  53.0990004   3.7574348  22.9857814  53.8683326
   4.2545335  29.5859315  49.4835634   4.8203367  30.2452524  49.3994177
   3.6073238  29.9309013  49.9552036   4.2424091  29.7341256  49.5408390
   2.3123271  21.0425195  55.8171189   1.4734372  21.0686474  55.5809452
   2.3827638  21.6895931  56.3976535   2.1991664  21.1421321  55.8680305
   6.1880795  26.2493182  53.1032430   6.1014769  26.4048608  53.9567209
   5.7331275  26.8931258  52.7291835   6.1084051  26.3668937  53.1739537
   3.9554660  30.2787288  55.5144771   3.8169019  30.9768334  56.0193513
   3.1754657  30.1235945  55.1580953   3.8197886  30.3587455  55.5371045
   2.2932745  26.5783664  61.7667153   2.2880783  25.7063480  61.7709579
   2.9993739  26.7771833  61.2936608   2.3977749  26.4787538  61.6974188
   5.4508032  29.6365542  46.2761270   5.0714841  28.8502680  46.2690560
   4.7874278  30.1852399  46.1332914   5.2966507  29.6010366  46.2542067
   2.9052658  12.5791242  53.6795351   3.0236227  13.0367705  52.9462654
   2.7314834  11.7736503  53.3931569   2.8971829  12.5285014  53.5296285
   1.6951397  29.0245901  54.3802778   1.0196398  28.7931133  54.8816165
   1.7043773  28.4167084  53.7544883   1.5969901  28.9004826  54.3618930
   3.6968131  31.8811033  46.6112956   3.7787969  32.6878019  46.2874407
   4.1817873  31.9006993  47.3353730   3.7805289  32.0031696  46.6699855
   3.2043332  30.6408452  66.6931282   4.0178197  30.3693600  66.8536414
   3.0438298  30.3415992  65.8891478   3.3013280  30.5563378  66.5976688
   1.8920161  34.2460857  51.0780891   1.4999953  33.9427572  50.3603757
   2.0473234  35.0829947  50.8885845   1.8573751  34.3244694  50.9437388
   2.6454582  22.9331174  60.5709977   1.8331263  22.6257064  60.6523150
   3.1044516  22.4530174  61.1352689   2.5934966  22.8167666  60.6664571
   2.0559836  30.8110846  51.0186922   1.6974491  30.9825489  51.7950954
   1.5698547  31.2724052  50.4614920   1.9318533  30.9049817  51.0512191
   3.2164576  31.7014742  61.9654123   3.8544296  31.2074937  61.6316579
   2.5738667  31.6292142  61.3806349   3.2158802  31.6173750  61.8296477
   4.9421576  23.5503888  56.5320038   4.5149184  23.4630236  55.7768138
   4.3047629  23.6581663  57.1174882   4.7851183  23.5536548  56.5065480
   3.2718832  32.3934550  58.6059479   4.0611210  32.0423615  58.7261561
   3.4462430  33.2070939  58.3436113   3.4139114  32.4620407  58.5847347
   2.1252656  16.4044107  53.1675898   2.3302250  16.3366415  54.0132895
   1.7979080  17.2102928  53.0997075   2.1067904  16.5130047  53.2835553
   5.3786344  16.9575871  52.6478663   4.7660658  17.4446273  53.0332395
   5.4750519  16.2819362  53.1916314   5.3024242  16.9294180  52.7857521
   9.0211372  28.0292808  58.0756179   9.0794496  28.4779457  58.8216156
   8.3877840  28.4391621  57.6386259   8.9362667  28.1566543  58.1208728
   2.6610467  33.6496350  54.5110925   2.4630155  34.1387164  53.8167137
   2.0398178  33.8537591  55.0895059   2.5398031  33.7512888  54.4934149
   5.9733051  26.0509096  56.1621870   5.7331274  25.2115511  56.1664296
   6.4525059  26.1309262  56.8862643   6.0085235  25.9390495  56.2696672
   1.6379821  21.8843274  47.8140843   1.1102839  21.9672018  47.1246552
   2.0975529  22.6261146  47.8105488   1.6281671  22.0063937  47.7115538
   7.9738238  22.8310553  54.1151129   7.7348008  22.7906387  53.2771913
   8.1372140  23.6781705  54.2416850   7.9628542  22.9502638  54.0104611
   4.5784269  27.2160502  60.0456174   5.3018467  26.7633028  59.8667194
   4.3134231  27.4965168  59.2628502   4.6465542  27.1911471  59.9034889
   1.1916903  30.4546838  46.9450500   1.9151102  30.9204951  46.8015073
   0.7517494  30.5220448  46.1948097   1.2332595  30.5330675  46.8135281
   7.0119583  26.1786913  58.5486724   7.6037423  26.8184164  58.5804922
   7.4478577  25.4809950  58.8378790   7.1638014  26.1705263  58.5967556
   1.4520753  34.5167543  47.1048561   0.7350062  34.3428405  46.6395798
   2.1027490  34.2820115  46.5724047   1.4422603  34.4563335  46.9577779
   4.0368724  23.3932131  50.8489866   3.3659914  23.9361834  50.7202932
   4.7308474  23.8626987  50.6071561   4.0397591  23.5430403  50.7945394
   4.1996851  19.8488015  53.7580239   4.5524461  19.4217738  54.4326038
   3.3411653  19.7638859  53.8881316   4.1246296  19.7732756  53.8775250
   2.1980117  23.1123384  57.7065082   2.1778045  22.9306679  58.5599860
   2.2459318  23.9835402  57.6824665   2.2014758  23.2139922  57.8288376
   5.6320911  14.9706427  54.6864552   5.1251776  14.2635567  54.6185729
   6.4288345  14.6399616  54.8165628   5.6748151  14.8179578  54.6963547
   1.5484927  21.4773039  50.5838216   1.3198620  21.5005741  49.7416574
   1.8083004  20.6530506  50.7033226   1.5531115  21.3589119  50.4763413
   7.8341051  29.4871354  47.6705416   8.2174657  30.2362710  47.9003513
   7.0385165  29.7337173  47.4117405   7.7734834  29.6341047  47.6662990
   4.2741634  20.4672977  50.8341374   4.2735860  20.3121633  51.6925650
   4.0697814  21.3135964  50.7782759   4.2441411  20.5693597  50.9529313
   1.9982486  25.1470478  54.4877581   2.4936151  24.4293473  54.4481601
   1.1882261  24.8441276  54.3732068   1.9526379  24.9968125  54.4651307
   4.0634304  27.8974166  57.1754709   4.4889376  27.3748588  56.6225135
   3.6991224  28.4955003  56.6543332   4.0720907  27.9084393  57.0163719
   0.6512904  31.6108430  53.5055867   1.1224082  32.3248693  53.6745852
   0.9873082  31.0107180  54.0415736   0.7708019  31.6279894  53.6088243
   2.7389888  33.2209743  65.6847939   2.8486854  32.4318304  66.0404686
   3.0680785  33.1315680  64.8822277   2.8042294  33.0915596  65.6190330
   1.2886850  31.4026364  60.2683560   0.7407796  30.7784248  60.0003625
   1.7499879  31.5920636  59.5527639   1.2754060  31.3385414  60.1233991
   4.0980715  19.4711719  57.6534752   3.5143703  19.9720925  57.2412319
   4.4185009  18.9641275  57.0199075   4.0593890  19.4703554  57.4993259
   0.8545177  32.4077437  56.7992901   1.6743550  32.2640403  57.0609196
   0.5739254  33.0323636  57.3409339   0.9341920  32.4787789  56.9180840
  17.3258827  40.0642289  49.7635777  17.2952831  40.9186925  49.9354047
  17.9240176  39.7637581  50.3221921  17.4095985  40.1458785  49.8710579
  10.5258512  39.1517940  54.5188708   9.6696407  39.3126438  54.5697824
  10.5726165  38.2810004  54.5393769  10.4057623  39.0468742  54.5294774
   4.9099651  48.6880658  50.2825939   4.1582551  48.3096196  50.0541984
   5.3585663  48.7199091  49.5344749   4.8649318  48.6366265  50.1383441
  13.8352228  45.4204465  64.1249164  14.5418996  44.9256496  64.2536098
  14.0240164  45.8613547  63.3951822  13.9680134  45.4122816  64.0358209
  10.3624611  49.1106027  45.7111486  10.0275980  49.7882949  45.2755708
  10.8751482  48.7211338  45.1228358  10.3890192  49.1530605  45.5598278
   9.9028903  51.0620296  51.6522598  10.2868282  51.6307194  51.1127373
   9.8388044  50.3369806  51.1728414   9.9502330  51.0395759  51.5016460
  13.3710333  41.2109984  57.1620359  13.9166293  41.8895070  57.2214329
  13.3127209  41.0697444  56.3021941  13.4426247  41.2901985  57.0432420
   6.4884408  48.6999050  52.5488712   6.5894771  47.8899404  52.8585839
   5.8926153  48.6055996  51.9188390   6.4156946  48.5664078  52.5014950
  15.1475401  42.6394591  48.0354087  15.0314927  43.3902277  48.4646225
  15.9431288  42.3818544  48.2850174  15.2479991  42.7129438  48.1358179
   6.3285147  53.6176639  53.9503568   6.9722603  54.0589803  54.3399726
   6.6541403  52.8130065  53.8633826   6.4716976  53.5641834  53.9949045
   1.9839539  36.8905067  55.0725353   1.3644571  36.2997714  54.9035368
   1.8823403  37.4816502  54.4389676   1.8777215  36.8909149  54.9530343
   7.0305727  46.6288614  49.3223429   7.3521568  47.1693821  48.7184737
   7.6777823  46.0585385  49.4545719   7.1731782  46.6247789  49.2530465
   9.0807435  38.6304609  49.4057816   9.7787600  38.8092736  49.8979279
   9.3959768  38.1074948  48.7828205   9.2302772  38.5798381  49.3859826
   1.7108672  40.4357349  57.3168922   1.5867369  41.0219794  57.9518741
   2.3626957  39.9417544  57.6181197   1.7882322  40.4496153  57.4554851
   9.2695370  45.0175054  49.3937608   9.7089006  44.4092154  49.8392380
   9.1200033  44.6382427  48.6223073   9.3116836  44.8713525  49.3456775
   6.7367013  43.6119065  56.5956433   7.3816016  43.1191509  56.2767382
   6.9768790  43.7543852  57.4222511   6.8677598  43.5596508  56.6705966
   9.2753105  46.4573971  56.2463326   9.5576348  45.6625377  56.0250081
  10.0039265  46.9354559  56.2668387   9.4242668  46.4108568  56.2166341
   7.2534299  33.9997005  53.4879091   6.9237629  34.4508149  52.8182789
   6.5779300  33.9213169  54.0352097   7.1044735  34.0548140  53.4702314
  12.8704707  43.3702235  46.3468377  12.7856002  44.2263202  46.4917946
  13.3589090  43.0946559  47.0150536  12.9293604  43.4559556  46.4670458
  14.4610706  29.9882528  51.7328701  14.1464147  30.6786007  52.1649124
  13.9437648  29.9327310  51.0314202  14.3375177  30.0817417  51.6925650
  13.8023140  39.9887029  47.8466112  13.2734612  40.2046663  48.5063418
  14.3248160  40.6823168  47.7667081  13.8011593  40.1230166  47.9321711
  19.2571193  45.5633334  53.2199156  18.4268896  45.7743977  53.3832573
  19.2080445  44.7370388  52.9441440  19.1277928  45.4722940  53.2036522
   5.6922748  43.8850246  46.6473580   5.1079963  44.3900277  47.0539444
   5.2892843  43.6592633  45.9070172   5.5462052  43.9258494  46.5978605
   1.2466777  49.6005007  53.4497251   0.7634355  50.3255497  53.4256835
   2.0590095  49.8981137  53.5607409   1.2957524  49.7507361  53.4624531
   7.3180931  48.3937188  56.0547066   6.8007872  48.0344603  55.4508374
   8.0155322  47.8699362  56.0653132   7.3446512  48.2634876  55.9677325
  10.9744523  48.8432002  62.0163239  11.0627868  48.6558142  62.8641449
  11.4034235  48.1969431  61.6168086  11.0506625  48.7195009  62.0834990
   8.5414982  48.1263162  60.9980901   7.9785817  47.7135772  61.5220562
   9.3036006  48.0516067  61.4174044   8.5709431  48.0540562  61.1373902
  10.1499962  40.1315898  45.1242501  10.3895966  40.3393882  44.3117844
  10.4715803  39.3273407  45.2331445  10.2337120  40.0429999  45.0203054
   5.4590253  32.0609294  48.9702038   6.2136221  32.4287611  48.7319089
   5.2817787  32.4348848  49.7381218   5.5444731  32.1707482  49.0486927
   4.1010974  50.1161183  53.6017531   4.8031553  49.6013172  53.6590288
   4.0208457  50.4435334  54.4064406   4.1934734  50.0875409  53.7290323
  18.7525151  38.2103734  57.0149578  17.9153572  38.2805921  57.2497172
  18.7213382  38.2128229  56.1423880  18.6243434  38.2213961  56.9209126
   5.1489880  40.3536770  62.7297946   5.3210384  40.2442664  63.5783228
   5.6859238  40.9991175  62.4929139   5.2534884  40.4328772  62.8203043
   3.8147317  34.4679613  45.6680151   3.6322891  34.6851494  44.8421144
   4.6772930  34.5818625  45.7238766   3.9151907  34.5169511  45.5534638
   3.4261749  46.3067535  53.1103139   4.2650649  46.5390468  53.1576901
   3.4573518  45.4371846  53.0410175   3.5543467  46.2124481  53.1067784
   4.0514452  46.7268410  57.4116445   4.5912677  46.5839541  58.0819817
   3.3684399  47.1265161  57.7800471   4.0306606  46.7648081  57.5650867
   9.4947036  31.4706023  48.7029175  10.2233197  31.2921978  48.2567332
   9.5841929  32.3124103  48.9136353   9.6153699  31.5689902  48.6682693
  13.4755337  42.4059411  52.6061469  14.2312852  42.8390925  52.6450378
  13.5817662  41.7564180  53.1796105  13.6025508  42.3736895  52.6959495
  16.5135508  46.2332688  53.3563872  16.0770740  46.2369430  54.1122844
  16.1798424  46.9138187  52.9243450  16.3998128  46.3345144  53.4044705
  11.0864582  48.2741021  64.6807023  11.8704999  48.3871869  65.0462765
  10.8861176  47.4482158  64.8765708  11.1730607  48.1687740  64.7641409
  16.4332991  33.2746516  55.5993300  17.0758900  33.3444620  56.1855215
  16.6856012  32.6075739  55.0972842  16.5655123  33.1872864  55.6120579
   3.3609344  37.7453785  44.1802625   2.6467521  37.4591965  44.5925057
   3.8453313  38.0850411  44.8209012   3.3268708  37.7535435  44.3358259
   4.2050204  36.4847079  60.2117874   3.5122000  36.0144059  60.4578606
   4.8210531  36.2585384  60.7859581   4.1934734  36.3814211  60.3327027
  11.2434975  50.1851123  58.3273478  10.4450221  49.9450623  58.5847347
  11.6920987  50.2365516  59.0740526  11.1909586  50.1573514  58.4758402
  19.6479854  42.9513608  52.2483509  20.3096289  42.3904276  52.1479418
  19.0071266  42.4565639  52.5736201  19.6508722  42.7950017  52.2815850
  10.5356662  46.2483739  44.5564433  10.9507811  45.9168763  43.8648928
   9.7048592  46.0152642  44.4284569  10.4744671  46.1654995  44.4355280
  15.9344685  43.9678990  51.9895498  16.1700274  44.1124189  51.1622349
  16.0834249  44.7321398  52.3827012  15.9910488  44.1018045  51.9259102
   2.9290763  40.4512483  61.3544719   3.6530735  40.4365514  61.8409614
   3.0306899  41.1607838  60.8566688   3.0508972  40.5537186  61.3523506
  17.7635142  42.8080656  49.8265102  18.0943359  43.3408296  49.2205197
  18.3368230  42.8619544  50.4827053  17.8968821  42.8950225  49.8342884
  10.3035712  43.9311568  66.2193666   9.5108693  44.2455080  66.4046286
  10.4184639  44.1463036  65.3814451  10.2031123  44.0095404  66.1232001
  12.9767031  40.6545559  50.5088682  13.0713885  41.3934853  50.9628308
  12.3525875  40.2263034  50.9423247  12.8976061  40.7006880  50.6396830
  11.2319505  43.8331772  61.1578963  11.8058367  43.1959016  61.3127527
  11.1534309  43.8335854  60.2888621  11.3052740  43.7396883  61.0525374
  13.2290052  42.4994299  43.7425634  13.1470215  42.5696486  44.6080621
  13.8669773  43.0624043  43.5509375  13.3109890  42.5933270  43.8415584
   6.5883224  42.2655037  53.2100160   6.3302468  41.4326772  53.1831460
   6.6431706  42.4912650  52.3692661   6.5583001  42.1752808  53.0820297
  11.6684274  34.3683487  53.3104253  10.9640600  33.8792673  53.4688172
  11.7169248  34.3805962  52.4392698  11.5714325  34.2973135  53.2043593
   5.5617936  39.8192799  53.6965055   4.9867527  39.9784967  54.3329016
   5.1853612  39.1828208  53.2333506   5.4220748  39.7490612  53.7219614
   9.2291224  38.2916148  58.5557434   8.8405657  37.8670366  57.9009625
   8.5645923  38.5398298  59.0634460   9.0738152  38.2654870  58.5345302
  18.8714493  38.0491153  51.3305264  18.6151058  37.2371095  51.1403146
  19.7143807  38.0568720  51.1035451  18.9580519  37.9303151  51.2690081
  13.0517586  31.9890777  56.0681418  13.4328098  31.3068948  56.4549292
  12.2480870  31.7000379  55.8857082  12.9894048  31.8457826  56.0985474
  10.3330163  42.5214753  46.7534241  11.1470801  42.8129646  46.6417012
  10.2689304  41.8674615  46.1792534  10.4432902  42.4679948  46.6523078
  16.5539653  45.2040749  61.1663816  16.3178290  44.3728814  61.0475877
  17.1982882  45.1526356  61.7518660  16.6134323  45.0738437  61.2349710
   6.2038071  45.9936270  51.8806553   6.8412018  45.7548018  52.4258346
   6.6293142  46.1973429  51.1459713   6.3614237  45.9887281  51.8523710
   0.8950713  48.2324607  55.7640856   0.9354858  48.5039458  54.9360636
   1.4545237  48.7566515  56.1798644   0.9834059  48.3500362  55.7032745
   6.8440886  41.2138560  46.2181442   7.2286039  40.9946267  46.9697987
   6.5952506  42.0401506  46.3482518   6.8642958  41.3036706  46.3482519
   7.0109426  34.4944975  65.9344026   6.6962867  35.2644538  65.6713589
   6.6899359  33.9315231  65.3496253   6.9168345  34.5255244  65.8085376
  17.5776073  44.9885198  57.2292111  17.2721890  45.7213255  57.5905426
  16.8582289  44.5823127  56.9484897  17.4263416  45.0366931  57.2405248
   8.5859543  46.4708693  53.5600339   8.6598551  46.3083865  54.4142189
   9.4029049  46.6598883  53.3160821   8.7175901  46.4745435  53.6498365
  23.2777866  41.6278199  56.5560455  23.2102366  41.6474158  55.6863042
  23.2633528  42.4708526  56.7816126  23.2656622  41.7551933  56.4612932
   2.3465299  46.8166556  50.5894782   1.5203417  47.0628293  50.4629061
   2.4077291  46.7378637  51.4556841   2.2339466  46.8411505  50.6983727
   4.5641323  32.8835497  51.5490223   3.6963749  32.9558096  51.6147832
   4.8516528  33.6857576  51.7378198   4.4781071  33.0129644  51.5864989
  13.6874212  33.0313356  59.8801544  14.4327804  32.8423167  59.4664970
  13.2711517  33.5571594  59.3215401  13.7359186  33.0815502  59.7366118
   7.1264128  49.4343436  48.2913812   7.4162427  49.0432417  47.5673039
   7.8567609  49.6160141  48.7319088   7.2771013  49.4037250  48.2496619
  21.0636483  40.4022585  54.8307049  21.6144404  39.7690654  55.0704141
  21.0480598  40.9337978  55.5222554  21.1421679  40.3871533  54.9685908
   7.7158874  44.2361182  59.3766943   7.2170567  44.9476950  59.4551831
   8.5259098  44.5561849  59.3385105   7.7614980  44.3888031  59.3823511
   5.0670044  51.4110819  51.3573962   4.8470339  51.1208173  52.1500629
   4.8464566  50.7525774  50.8291874   5.0017638  51.2710527  51.3962871
   3.9786991  43.4984135  53.6229664   3.6900240  42.8721606  54.1575391
   4.8470339  43.4404422  53.6894344   4.0647243  43.3971679  53.7120618
  14.7664889  38.6418918  53.9411646  14.4229655  37.9209254  54.2918895
  14.8657932  38.4332770  53.0990004  14.7306932  38.5043122  53.8683326
   7.2338000  52.7840208  50.1404654   7.8862058  52.2516651  50.3695681
   6.5363609  52.4308861  50.5272529   7.2268718  52.6529731  50.2316822
   4.1819265  45.1379386  49.5472029   4.9365233  45.5192425  49.7607491
   3.5889877  45.5890530  50.0018725   4.2055978  45.2608213  49.6454907
  15.2277918  45.1044623  49.4835634  15.7935951  45.7637832  49.3994177
  14.5805822  45.4494321  49.9552036  15.2156675  45.2526564  49.5408390
   6.6425932  37.0942226  64.6729241   5.8325707  37.4000006  64.5619083
   7.1200618  37.8147809  64.7881825   6.5929410  37.2456828  64.6736312
   5.5017491  46.3087947  54.9212144   4.9798245  46.4488239  55.6064009
   5.8891512  45.5498612  55.1114262   5.4821192  46.2173471  55.0513221
   2.4908675  36.3593756  48.9907099   2.2033471  35.9895027  48.2539046
   3.1779144  36.8288612  48.7290804   2.5497573  36.3740726  48.8422175
  11.6984496  48.0483407  48.9072713  11.4571172  47.3151267  48.4999778
  11.8785829  48.5970264  48.2539046  11.6892120  48.0205798  48.7502936
   6.9283817  43.3391966  50.3193635   6.7326600  43.9466701  49.7253938
   7.1518162  42.6459910  49.8385309   6.9318458  43.3269492  50.1609716
   5.3262347  40.2246704  50.4374504   6.0484999  40.3887863  49.9778310
   4.8470340  40.9456369  50.3313843   5.3626078  40.3544934  50.3540118
  13.2855854  36.5610503  55.8171189  12.4466955  36.5871782  55.5809452
  13.3560222  37.2081239  56.3976535  13.1724248  36.6606629  55.8680305
   2.9769964  42.6304777  59.5428643   3.4891061  42.9089030  58.8937403
   2.6906306  43.3694071  59.9091456   3.0104827  42.7807130  59.5018521
  11.7325133  33.4595880  50.5498804  12.4351486  33.2603629  50.0718763
  11.4669321  32.6871823  50.8567648  11.7971765  33.3158846  50.5244246
  17.1613378  41.7678490  53.1032430  17.0747353  41.9233916  53.9567209
  16.7063858  42.4116565  52.7291835  17.0816635  41.8854245  53.1739537
   6.4953689  34.7231165  59.6029685   6.3036886  34.7386300  60.4529109
   7.3452285  34.9194840  59.5796340   6.5929411  34.7545517  59.7252980
   0.8800602  37.2522147  57.5813501   0.7386094  36.4006088  57.7058009
   1.1641165  37.2950808  56.7575707   0.9008448  37.1321897  57.4781126
  11.0339194  39.0889237  51.7257990  10.7873909  39.0084988  52.5594779
  11.3624317  38.3042705  51.5320517  11.0460438  38.9615502  51.8205513
  14.9287243  45.7972596  55.5144771  14.7901602  46.4953642  56.0193513
  14.1487241  45.6421253  55.1580953  14.7930470  45.8772763  55.5371045
  13.2665328  42.0968972  61.7667153  13.2613367  41.2248788  61.7709579
  13.9726322  42.2957141  61.2936608  13.3710332  41.9972846  61.6974188
   6.9936222  41.8245956  61.1380973   7.1379597  42.4047164  60.5024083
   7.3411870  42.2022252  61.8430827   7.0663683  41.9666660  61.1479968
   9.1656139  41.0236124  58.9206104   8.4179453  41.2167138  58.5154383
   9.3197664  40.1981344  58.6830226   9.0778567  40.9301235  58.8251510
   6.0663977  50.0148727  58.0042000   6.2153540  49.4551643  57.3515404
   6.8463979  50.0940729  58.3874518   6.2038070  49.9434293  57.9638949
  16.4240616  45.1550850  46.2761270  16.0447425  44.3687988  46.2690560
  15.7606861  45.7037707  46.1332914  16.2699091  45.1195674  46.2542067
   8.5917277  50.1863370  59.2826490   8.5160948  49.5172181  59.8377279
   8.5207136  50.8881159  59.7967157   8.5697884  50.1908278  59.4403339
   9.4057916  34.9186675  59.8101508   9.8630530  35.6510649  59.9374300
   9.4814245  34.4953140  60.5688764   9.4848886  34.9643913  59.9402585
   1.6490907  35.1652494  60.8990952   1.1133097  34.5532853  61.2151719
   1.7108672  35.7400630  61.5524618   1.5786540  35.1599422  61.0426379
  13.8785242  28.0976550  53.6795351  13.9968810  28.5553013  52.9462654
  13.7047418  27.2921811  53.3931569  13.8704413  28.0470322  53.5296285
   9.2487524  48.7064369  50.1150096  10.0137415  48.4374013  49.7932761
   9.1465614  48.2214380  50.8320159   9.3469020  48.5953934  50.1729924
   7.2840294  36.9088779  56.6543332   6.4936369  36.7280239  56.9760668
   7.6800917  36.1315731  56.6373627   7.2257170  36.7676240  56.6995881
  11.7706185  45.7376553  42.0950046  12.5379170  45.7976678  41.6855898
  11.3237494  45.1656994  41.6106364  11.8179612  45.6613129  41.9627756
  12.6683980  44.5431209  54.3802778  11.9928982  44.3116441  54.8816165
  12.6776356  43.9352392  53.7544883  12.5702485  44.4190134  54.3618930
   9.7978124  39.3849038  61.1366831   9.7337265  40.2458994  61.0086968
   9.9375312  39.0681031  60.3362382   9.8093594  39.4649204  60.9995044
  14.6700715  47.3996341  46.6112956  14.7520552  48.2063327  46.2874407
  15.1550457  47.4192300  47.3353730  14.7537873  47.5217004  46.6699855
   8.4797218  42.0781177  55.2783034   8.0559467  42.2785676  54.5422052
   8.3042073  41.2310025  55.3907334   8.3908099  41.9829959  55.1856724
   7.9808912  53.5931690  57.7404491   8.4704842  52.8942479  57.5580156
   7.4093144  53.2955560  58.3280549   7.9693442  53.4457914  57.8005532
   3.7679663  42.5733229  50.7111007   3.9244282  42.5080031  51.5666999
   4.1080256  43.3481781  50.4989686   3.8412898  42.6782427  50.8065601
  10.3058808  41.9491112  49.5804370  10.8474353  41.4461493  50.0442990
  10.6205367  41.8956307  48.7693855  10.4323205  41.8670533  49.5288182
  14.1775915  46.1593759  66.6931282  14.9910780  45.8878908  66.8536414
  14.0170881  45.8601299  65.8891478  14.2745864  46.0748686  66.5976688
   8.4745257  47.3408464  46.8644398   8.5438078  46.4823002  47.0037398
   9.2533713  47.5580345  46.5363422   8.5998107  47.2461328  46.8361555
  11.4548077  36.8427417  59.6326670  11.6690047  36.2038331  59.0790024
  10.8381976  37.2873241  59.2034532  11.3953406  36.8137560  59.4877101
  12.8652745  49.7646165  51.0780891  12.4732537  49.4612880  50.3603757
  13.0205817  50.6015255  50.8885845  12.8306335  49.8430002  50.9437388
  13.6187165  38.4516482  60.5709977  12.8063847  38.1442372  60.6523150
  14.0777100  37.9715482  61.1352689  13.5667550  38.3352974  60.6664571
  13.0292420  46.3296154  51.0186922  12.6707075  46.5010797  51.7950954
  12.5431131  46.7909359  50.4614920  12.9051117  46.4235125  51.0512191
  10.8462806  29.9527352  54.6214013   9.9756364  29.9266073  54.5747322
  11.1003147  29.7804544  53.8039859  10.7556366  29.9237496  54.4934150
   7.8180785  42.0095319  43.5587156   8.1073310  42.7860202  43.8330730
   7.9052584  41.4984051  44.2601655   7.8735041  42.0487238  43.7029654
  10.7140673  39.8576553  65.3538680  11.1840304  40.4818670  65.7406554
  10.7602553  39.1893529  65.9131894  10.7908548  39.8511234  65.4938751
   7.8711946  31.9633581  56.0787483   7.3550435  31.2713772  56.2039062
   7.3105875  32.6304358  56.0250082   7.7118459  31.9596838  56.0893549
   9.9404180  32.5026541  57.9080336   9.5535933  32.5275572  58.6893866
   9.4537117  31.9368219  57.4554853   9.8116689  32.4222292  57.9568240
  14.1897159  47.2200050  61.9654123  14.8276880  46.7260245  61.6316579
  13.5471251  47.1477450  61.3806349  14.1891386  47.1359058  61.8296477
  15.9154159  39.0689196  56.5320038  15.4881767  38.9815544  55.7768138
  15.2780212  39.1766971  57.1174882  15.7583766  39.0721856  56.5065480
   9.6061321  29.3893526  60.1990596  10.2354439  29.9253826  59.9211666
   9.7747184  29.2970885  61.0504162   9.7239116  29.4554889  60.2839124
   9.4075236  34.1764721  62.4717007  10.2348666  33.9049870  62.5275622
   9.4283082  34.9725563  62.8280826   9.5328086  34.2544475  62.5332190
  14.2451416  47.9119858  58.6059479  15.0343794  47.5608923  58.7261561
  14.4195014  48.7256246  58.3436113  14.3871697  47.9805715  58.5847347
   3.9844726  41.3228584  55.6587268   3.1432733  41.2232458  55.8666162
   4.1934734  42.0924064  56.0101589   3.8909419  41.4220627  55.7414583
   1.4620293  38.9448121  53.4872019   1.0676991  39.0191133  52.7122128
   0.9060410  39.3306067  54.0380381   1.3223105  39.0129895  53.4539679
  13.0985240  31.9229415  53.1675898  13.3034833  31.8551723  54.0132895
  12.7711664  32.7288236  53.0997075  13.0800488  32.0315355  53.2835553
   7.7961391  39.2509983  54.9084866   7.4924529  38.6965971  55.5095273
   7.0940812  39.4302193  54.4212900   7.6477601  39.1954765  54.9254571
   6.8527488  36.5610503  49.4729567   7.1287222  35.8429415  49.0607135
   7.4526157  37.1595423  49.2650674   6.9820753  36.5430874  49.3810329
   5.8579742  46.4659704  59.6156963   5.7500097  46.4761766  60.4819021
   6.0675523  47.2914484  59.4261917   5.8729853  46.5900778  59.7161055
  16.3518928  32.4761179  52.6478663  15.7393241  32.9631581  53.0332395
  16.4483102  31.8004670  53.1916314  16.2756825  32.4479488  52.7857521
  10.3538009  34.2324020  47.7476163  10.8081755  34.4034581  48.4724007
  10.8278054  33.6192131  47.3473938  10.4906329  34.1674905  47.7949924
   3.8753534  43.7172346  57.0778901   3.2841467  44.3581844  57.0481916
   4.6374558  44.1409963  57.0510201   3.9001795  43.8748185  57.0694048
   4.2714157  34.8774344  57.7446919   4.7315638  34.9513273  58.4822042
   4.3170264  35.6755598  57.3946740   4.3464712  35.0068491  57.8019675
   5.9197507  35.5441039  62.3118946   5.5283072  34.8974386  62.7474724
   6.0883369  36.1352474  62.9313201   5.8868417  35.5355307  62.4681652
  19.9943956  43.5478116  58.0756179  20.0527079  43.9964765  58.8216156
  19.3610423  43.9576929  57.6386259  19.9095251  43.6751850  58.1208728
  13.6343050  49.1681658  54.5110925  13.4362739  49.6572472  53.8167137
  13.0130761  49.3722899  55.0895059  13.5130615  49.2698196  54.4934149
   7.6951029  40.9366555  48.8521170   8.4393074  41.3240831  49.0904120
   7.8411725  40.0923980  49.0161658   7.8261614  40.8697027  48.9115139
   9.6130604  32.7316813  53.8853031   8.7666649  32.9039621  53.7594381
   9.6101737  31.9266157  54.2218859   9.4877754  32.6377842  53.9164158
  10.6828904  36.5092028  54.7515089  10.2088859  35.9833790  55.2620400
  11.0547040  35.9621501  54.1829951  10.6678793  36.3508024  54.7430236
   1.0601935  38.5063535  60.1198635   1.9227548  38.4059244  60.0335965
   0.7293718  37.9258244  59.5584207   1.1387131  38.4055161  60.0244041
  16.9465635  41.5694403  56.1621870  16.7063858  40.7300819  56.1664296
  17.4257642  41.6494570  56.8862643  16.9817819  41.4575803  56.2696672
  12.6112404  37.4028582  47.8140843  12.0835423  37.4857326  47.1246552
  13.0708112  38.1446454  47.8105488  12.6014255  37.5249245  47.7115538
  18.9470822  38.3495861  54.1151129  18.7080592  38.3091695  53.2771913
  19.1104723  39.1967013  54.2416850  18.9361126  38.4687946  54.0104611
  15.5516852  42.7345810  60.0456174  16.2751051  42.2818336  59.8667194
  15.2866814  43.0150476  59.2628502  15.6198125  42.7096778  59.9034889
   4.4203721  37.3305984  56.7809053   3.7956791  37.3424375  56.1735006
   4.0849315  37.8066159  57.4300293   4.2789212  37.4024501  56.7865622
   4.6045469  35.6731102  42.8381738   4.2558274  36.3250827  43.3013287
   4.1241915  35.6588215  42.1105609   4.4815713  35.7674156  42.7992829
   1.1329396  45.3906444  58.2212817   0.6029321  44.6998883  58.2707792
   1.4054489  45.3816629  57.3925526   1.0954118  45.2873575  58.1060233
  12.1649487  45.9732146  46.9450500  12.8883685  46.4390259  46.8015073
  11.7250078  46.0405756  46.1948097  12.2065179  46.0515983  46.8135281
  11.3335642  42.8329688  58.1951189  10.7192635  42.2887739  58.4899824
  11.8502927  42.3193925  57.7157005  11.3191304  42.6766097  58.1675417
  10.5731939  43.9033958  55.9295488  10.1459547  43.2783677  55.4960923
  10.5656883  43.6208880  56.7554495  10.5091080  43.7686739  55.9875315
   3.6894466  38.9399131  58.9983922   3.8487953  38.1842455  59.4035643
   3.5087360  39.4890071  59.6524659   3.6859825  38.9092945  59.1546628
  11.6314769  31.1060367  59.5534711  11.1355330  31.3024041  58.8626278
  12.3883831  31.5053035  59.3823513  11.6701594  31.1938101  59.4254848
   8.9017649  34.7802713  56.1438022   8.9260136  34.2462825  55.4550802
   9.1529122  34.2720022  56.8063612   8.9427567  34.6263617  56.1402666
   5.1818971  33.5073531  55.5243766   5.2217342  34.0082738  56.2378473
   4.3568635  33.5983925  55.2549689   5.0658497  33.5955347  55.5894304
   7.3648584  43.0734271  63.6264060   6.5144214  43.2105985  63.7621705
   7.5276711  42.3398049  64.0711762   7.2632447  42.9848372  63.7119660
   6.6033334  40.0234041  57.8217665   5.7725264  40.1907859  57.6152913
   6.5484851  39.6469992  58.6066550   6.4722749  39.9923772  57.9066193
   4.4117117  33.5142934  63.4574076   5.0369821  32.9705067  63.7303508
   3.9567597  33.0337851  62.8881866   4.4365378  33.3632415  63.4135669
   4.9769378  38.2989632  48.3507783   5.1172339  38.7962097  49.0536424
   5.4751911  37.5975927  48.4921996   5.0710459  38.2691611  48.4759362
   5.0069600  39.1656743  45.6800359   5.6414680  39.7617168  45.6149821
   5.0895211  38.8660201  46.4946230   5.1126151  39.2097652  45.7903446
  17.9852166  41.6972221  58.5486724  18.5770006  42.3369472  58.5804922
  18.4211161  40.9995258  58.8378790  18.1370597  41.6890571  58.5967556
   6.5848583  35.0970719  45.6545801   6.9064424  34.6173801  45.0005064
   6.8475527  35.9070365  45.4636613   6.6714609  35.1460617  45.5301293
   9.8145556  46.1189593  59.1744618   9.3070647  46.6725440  59.6185248
   9.5172202  46.1797883  58.3563392   9.6950441  46.2095904  59.1193074
  11.9807738  34.4842913  58.0169280  12.4062810  34.0315439  57.4052807
  11.3664731  33.9302984  58.2934068  11.9536384  34.3356889  57.9674306
   1.5122588  41.3624584  48.9489905   2.0214818  41.9589092  49.3301211
   1.9856861  41.0950558  48.2666325   1.6565964  41.4110400  48.9044428
  12.4253336  50.0352851  47.1048561  11.7082646  49.8613713  46.6395798
  13.0760074  49.8005423  46.5724047  12.4155187  49.9748643  46.9577779
  10.4201961  30.9558013  51.4259857   9.7770279  30.8055659  51.9944996
  10.0801368  30.7100358  50.6608962  10.2747038  30.8970135  51.3962873
  15.0101308  38.9117439  50.8489866  14.3392497  39.4547142  50.7202932
  15.7041058  39.3812295  50.6071561  15.0130175  39.0615711  50.7945394
   9.0588041  51.0514151  56.0801624   8.8353696  50.2932981  56.4485651
   8.5697885  51.0812173  55.3582064   8.9531490  50.9436376  56.0278365
  15.1729435  35.3673323  53.7580239  15.5257045  34.9403046  54.4326038
  14.3144236  35.2824167  53.8881316  15.0978880  35.2918064  53.8775250
   3.8713120  37.9980843  51.8163086   3.1525109  38.4144975  52.0835949
   4.2425482  38.5635082  51.2654724   3.8205052  38.1430124  51.7745893
  13.1712701  38.6308692  57.7065082  13.1510628  38.4491987  58.5599860
  13.2191902  39.5020710  57.6824665  13.1747342  38.7325230  57.8288376
  11.1159031  45.2195884  63.6313558  11.0754885  44.5745561  63.0458714
  11.9282349  45.1632501  63.9438970  11.2302184  45.1154850  63.5910507
   7.7066498  51.2714610  53.5338709   7.2926897  50.6088740  53.1442551
   8.3913872  51.4192468  53.0134403   7.7464870  51.1955268  53.3995206
  11.0731792  50.4304695  54.2862326  10.6748076  50.5406965  53.5183146
  10.4583012  50.6386761  54.8688885  10.9230682  50.4778263  54.2593625
   9.6459694  37.0378843  47.1536465   9.0524534  37.3595839  46.6021032
   9.6834972  36.1919938  46.9457571   9.5634083  36.9603171  47.0419237
  16.6053495  30.4891735  54.6864552  16.0984360  29.7820874  54.6185729
  17.4020929  30.1584924  54.8165628  16.6480734  30.3364886  54.6963547
  12.5217511  36.9958347  50.5838216  12.2931204  37.0191049  49.7416574
  12.7815587  36.1715814  50.7033226  12.5263699  36.8774427  50.4763413
   6.8036739  38.8492820  60.1863316   6.2915642  38.2414003  60.5448347
   6.6316236  39.5649413  60.6537292   6.7026376  38.8656119  60.3079539
   1.6502454  37.2930396  62.8365678   1.4805044  37.9531770  62.2913884
   1.2068404  37.5036957  63.5578167   1.5601788  37.4216378  62.8627307
   5.5762273  35.5334893  51.8792411   6.0519640  35.8951973  51.2442592
   5.0750873  36.1891361  52.1592554   5.5727632  35.6829082  51.8269152
  18.8073635  45.0056662  47.6705416  19.1907241  45.7548018  47.9003513
  18.0117748  45.2522481  47.4117405  18.7467417  45.1526355  47.6662990
  10.6805810  36.7717065  62.6265571  11.2377240  36.5430874  61.9944037
  10.3566875  37.5322730  62.3500784  10.7152220  36.8500902  62.4922068
   8.3988927  39.8584718  63.5917578   9.1500254  40.1736395  63.9057133
   8.5911503  39.6563889  62.7651500   8.5380341  39.8752100  63.5160974
   7.6188927  37.6776093  45.2465795   7.9987891  37.6955722  44.4616910
   6.8781523  38.1230082  45.1256642   7.5657764  37.7457868  45.1129363
  15.2474217  35.9858284  50.8341374  15.2468444  35.8306941  51.6925650
  15.0430397  36.8321272  50.7782759  15.2173995  36.0878905  50.9529313
  12.9715069  40.6655786  54.4877581  13.4668734  39.9478781  54.4481601
  12.1614845  40.3626584  54.3732068  12.9258962  40.5153433  54.4651307
   8.4173681  44.5153599  46.6374585   7.6085003  44.1920273  46.5907895
   8.9248590  43.8086822  46.5702834   8.3723347  44.3634916  46.6204880
  15.0366888  43.4159474  57.1754709  15.4621960  42.8933896  56.6225135
  14.6723808  44.0140311  56.6543332  15.0453491  43.4269701  57.0163719
   4.6720968  51.7123691  55.9352055   4.9867527  52.5260080  55.9429837
   5.0814381  51.3273910  56.6034214   4.7789066  51.7752394  56.0356147
  11.6245487  47.1293738  53.5055867  12.0956666  47.8434001  53.6745852
  11.9605666  46.5292488  54.0415736  11.7440603  47.1465202  53.6088243
  13.7122472  48.7395051  65.6847939  13.8219438  47.9503612  66.0404686
  14.0413369  48.6500988  64.8822277  13.7774878  48.6100904  65.6190330
   8.5414982  31.9021209  60.4613962   8.6742888  31.1052202  60.7894937
   8.9260135  32.4287612  61.0412237   8.6171311  31.8621125  60.5957465
  12.2619434  46.9211672  60.2683560  11.7140380  46.2969556  60.0003625
  12.7232463  47.1105944  59.5527639  12.2486643  46.8570722  60.1233991
  11.6147338  28.8251535  57.0595055  10.8093301  28.7149264  57.3762893
  11.4854073  28.9263990  56.2024921  11.4767470  28.8235205  56.9803095
  15.0713298  34.9897027  57.6534752  14.4876287  35.4906233  57.2412319
  15.3917592  34.4826583  57.0199075  15.0326473  34.9888862  57.4993259
   7.6108097  33.9037621  47.9293427   8.4323792  34.0735934  47.6875122
   7.1477748  34.0584882  47.2059724   7.6639260  33.9519354  47.7865071
   6.2003429  31.8980384  58.7091855   6.7447842  31.5571510  59.2996197
   6.2540365  32.7565845  58.8513140   6.2892549  31.9735643  58.8173729
   2.0133988  45.6596800  55.5830663   2.6178845  45.6192634  54.9544484
   1.8061300  46.5067952  55.6134719   2.0722885  45.7784802  55.4946780
  11.8277760  47.9262745  56.7992901  12.6476134  47.7825711  57.0609196
  11.5471838  48.5508944  57.3409339  11.9074503  47.9973097  56.9180840
  21.4991095  54.6703248  54.5188708  20.6428991  54.8311746  54.5697824
  21.5458749  53.7995312  54.5393769  21.3790207  54.5654049  54.5294774
  15.8832235  64.2065965  50.2825939  15.1315135  63.8281504  50.0541984
  16.3318247  64.2384399  49.5344749  15.8381902  64.1551573  50.1383441
  24.8084812  60.9389773  64.1249164  25.5151579  60.4441804  64.2536098
  24.9972747  61.3798855  63.3951822  24.9412717  60.9308124  64.0358209
  21.3357195  64.6291335  45.7111486  21.0008563  65.3068257  45.2755708
  21.8484065  64.2396646  45.1228358  21.3622776  64.6715913  45.5598278
  20.8761486  66.5805604  51.6522598  21.2600866  67.1492502  51.1127373
  20.8120627  65.8555114  51.1728414  20.9234913  66.5581067  51.5016460
  24.3442916  56.7295291  57.1620359  24.8898876  57.4080378  57.2214329
  24.2859793  56.5882752  56.3021941  24.4158831  56.8087293  57.0432420
  17.4616991  64.2184358  52.5488712  17.5627354  63.4084712  52.8585839
  16.8658736  64.1241304  51.9188390  17.3889530  64.0849386  52.5014950
  26.1207985  58.1579899  48.0354087  26.0047511  58.9087585  48.4646225
  26.9163872  57.9003852  48.2850174  26.2212574  58.2314745  48.1358179
  17.3017731  69.1361947  53.9503568  17.9455186  69.5775111  54.3399726
  17.6273986  68.3315373  53.8633826  17.4449559  69.0827141  53.9949045
  10.6582035  60.2404644  52.1741045  10.4232220  59.4072297  52.0673314
  10.7967676  60.5209310  51.3602246  10.6437698  60.1588148  52.0383400
  12.9572123  52.4090375  55.0725353  12.3377155  51.8183022  54.9035368
  12.8555987  53.0001810  54.4389676  12.8509798  52.4094457  54.9530343
  18.0038311  62.1473922  49.3223429  18.3254152  62.6879129  48.7184737
  18.6510407  61.5770693  49.4545719  18.1464366  62.1433097  49.2530465
  20.0540019  54.1489917  49.4057816  20.7520183  54.3278044  49.8979279
  20.3692351  53.6260256  48.7828205  20.2035356  54.0983689  49.3859826
  12.6841256  55.9542656  57.3168922  12.5599953  56.5405102  57.9518741
  13.3359540  55.4602852  57.6181197  12.7614905  55.9681461  57.4554851
  20.2427954  60.5360362  49.3937608  20.6821589  59.9277462  49.8392380
  20.0932617  60.1567735  48.6223073  20.2849420  60.3898833  49.3456775
  20.2485688  61.9759279  56.2463326  20.5308931  61.1810685  56.0250081
  20.9771849  62.4539867  56.2668387  20.3975252  61.9293876  56.2166341
  18.2266882  49.5182313  53.4879091  17.8970212  49.9693457  52.8182789
  17.5511884  49.4398477  54.0352097  18.0777318  49.5733448  53.4702314
  23.8437291  58.8887543  46.3468377  23.7588586  59.7448510  46.4917946
  24.3321674  58.6131867  47.0150536  23.9026188  58.9744864  46.4670458
  25.4343290  45.5067836  51.7328701  25.1196731  46.1971315  52.1649124
  24.9170232  45.4512618  51.0314202  25.3107760  45.6002725  51.6925650
  24.7755724  55.5072337  47.8466112  24.2467195  55.7231971  48.5063418
  25.2980744  56.2008476  47.7667081  24.7744177  55.6415474  47.9321711
  30.2303777  61.0818641  53.2199156  29.4001480  61.2929285  53.3832573
  30.1813029  60.2555696  52.9441440  30.1010512  60.9908248  53.2036522
  16.6655332  59.4035554  46.6473580  16.0812547  59.9085585  47.0539444
  16.2625427  59.1777941  45.9070172  16.5194635  59.4443802  46.5978605
  12.2199360  65.1190315  53.4497251  11.7366938  65.8440805  53.4256835
  13.0322678  65.4166445  53.5607409  12.2690108  65.2692669  53.4624531
  18.2913514  63.9122496  56.0547066  17.7740456  63.5529911  55.4508374
  18.9887905  63.3884670  56.0653132  18.3179095  63.7820184  55.9677325
  21.9477106  64.3617310  62.0163239  22.0360452  64.1743450  62.8641449
  22.3766819  63.7154739  61.6168086  22.0239209  64.2380317  62.0834990
  19.5147566  63.6448470  60.9980901  18.9518401  63.2321079  61.5220562
  20.2768589  63.5701375  61.4174044  19.5442015  63.5725870  61.1373902
  21.1232546  55.6501206  45.1242501  21.3628550  55.8579190  44.3117844
  21.4448387  54.8458715  45.2331445  21.2069704  55.5615307  45.0203054
  16.4322836  47.5794602  48.9702038  17.1868804  47.9472919  48.7319089
  16.2550371  47.9534156  49.7381218  16.5177315  47.6892790  49.0486927
  15.0743557  65.6346491  53.6017531  15.7764137  65.1198480  53.6590288
  14.9941041  65.9620642  54.4064406  15.1667318  65.6060717  53.7290323
  29.7257735  53.7289042  57.0149578  28.8886156  53.7991229  57.2497172
  29.6945966  53.7313537  56.1423880  29.5976017  53.7399269  56.9209126
  16.1222464  55.8722078  62.7297946  16.2942968  55.7627972  63.5783228
  16.6591821  56.5176483  62.4929139  16.2267468  55.9514079  62.8203043
  14.7879901  49.9864921  45.6680151  14.6055474  50.2036801  44.8421144
  15.6505514  50.1003933  45.7238766  14.8884490  50.0354819  45.5534638
  14.3994333  61.8252843  53.1103139  15.2383232  62.0575776  53.1576901
  14.4306102  60.9557154  53.0410175  14.5276050  61.7309789  53.1067784
  15.0247036  62.2453718  57.4116445  15.5645261  62.1024849  58.0819817
  14.3416982  62.6450469  57.7800471  15.0039190  62.2833389  57.5650867
  20.4679620  46.9891331  48.7029175  21.1965781  46.8107286  48.2567332
  20.5574513  47.8309411  48.9136353  20.5886282  47.0875210  48.6682693
  24.4487921  57.9244719  52.6061469  25.2045436  58.3576233  52.6450378
  24.5550245  57.2749488  53.1796105  24.5758091  57.8922203  52.6959495
  27.4868092  61.7517996  53.3563872  27.0503324  61.7554738  54.1122844
  27.1531007  62.4323495  52.9243450  27.3730712  61.8530452  53.4044705
  22.0597165  63.7926329  64.6807023  22.8437582  63.9057177  65.0462765
  21.8593760  62.9667466  64.8765708  22.1463191  63.6873048  64.7641409
  10.4284181  58.4654009  57.5650866  10.1622596  57.6493126  57.7241857
  10.4422745  58.5107164  56.6946382  10.3908903  58.3510914  57.4604348
  27.4065575  48.7931824  55.5993300  28.0491483  48.8629928  56.1855215
  27.6588595  48.1261047  55.0972842  27.5387707  48.7058172  55.6120579
  14.3341928  53.2639093  44.1802625  13.6200105  52.9777273  44.5925057
  14.8185897  53.6035719  44.8209012  14.3001291  53.2720743  44.3358259
  15.1782787  52.0032387  60.2117874  14.4854584  51.5329367  60.4578606
  15.7943115  51.7770692  60.7859581  15.1667317  51.8999519  60.3327027
  22.2167559  65.7036431  58.3273478  21.4182805  65.4635931  58.5847347
  22.6653570  65.7550824  59.0740526  22.1642170  65.6758822  58.4758402
  30.6212438  58.4698916  52.2483509  31.2828872  57.9089584  52.1479418
  29.9803850  57.9750947  52.5736201  30.6241306  58.3135325  52.2815850
  21.5089246  61.7669047  44.5564433  21.9240394  61.4354071  43.8648928
  20.6781175  61.5337949  44.4284569  21.4477255  61.6840303  44.4355280
  10.8377595  59.2512788  54.8462611  10.6553168  59.2259674  53.9934903
  11.5727264  59.7211726  54.8851519  10.9191658  59.3174150  54.7260529
  26.9077269  59.4864298  51.9895498  27.1432858  59.6309497  51.1622349
  27.0566832  60.2506706  52.3827012  26.9643072  59.6203353  51.9259102
  13.9023346  55.9697791  61.3544719  14.6263319  55.9550822  61.8409614
  14.0039483  56.6793146  60.8566688  14.0241555  56.0722494  61.3523506
  28.7367726  58.3265964  49.8265102  29.0675943  58.8593604  49.2205197
  29.3100814  58.3804852  50.4827053  28.8701405  58.4135533  49.8342884
  21.2768296  59.4496876  66.2193666  20.4841276  59.7640388  66.4046286
  21.3917223  59.6648344  65.3814451  21.1763706  59.5280712  66.1232001
  23.9499615  56.1730867  50.5088682  24.0446469  56.9120161  50.9628308
  23.3258458  55.7448342  50.9423247  23.8708645  56.2192187  50.6396830
  22.2052088  59.3517079  61.1578963  22.7790950  58.7144324  61.3127527
  22.1266892  59.3521162  60.2888621  22.2785323  59.2582191  61.0525374
  10.8048505  56.1306289  54.9961677  11.3822008  55.9942740  55.6353923
  10.1062567  55.6742073  55.2507262  10.7869526  56.0428555  55.1283967
  24.2022636  58.0179607  43.7425634  24.1202798  58.0881794  44.6080621
  24.8402356  58.5809351  43.5509375  24.2842473  58.1118578  43.8415584
  17.5615807  57.7840345  53.2100160  17.3035051  56.9512079  53.1831460
  17.6164290  58.0097958  52.3692661  17.5315585  57.6938116  53.0820297
  22.6416857  49.8868795  53.3104253  21.9373184  49.3977981  53.4688172
  22.6901832  49.8991270  52.4392698  22.5446909  49.8158443  53.2043593
  16.5350519  55.3378107  53.6965055  15.9600111  55.4970275  54.3329016
  16.1586196  54.7013516  53.2333506  16.3953332  55.2675920  53.7219614
  20.2023808  53.8101456  58.5557434  19.8138241  53.3855674  57.9009625
  19.5378506  54.0583606  59.0634460  20.0470736  53.7840177  58.5345302
   6.2807338  54.9818182  51.7109496   6.3667590  54.6050050  52.4923026
   6.9083136  54.6078627  51.2329454   6.3863889  54.8703664  51.7554973
  24.0250169  47.5076085  56.0681418  24.4060681  46.8254256  56.4549292
  23.2213454  47.2185687  55.8857082  23.9626631  47.3643134  56.0985474
  21.3062746  58.0400061  46.7534241  22.1203385  58.3314954  46.6417012
  21.2421887  57.3859923  46.1792534  21.4165485  57.9865256  46.6523078
  17.1770654  61.5121578  51.8806553  17.8144601  61.2733326  52.4258346
  17.6025726  61.7158737  51.1459713  17.3346821  61.5072589  51.8523710
  11.8683297  63.7509915  55.7640856  11.9087442  64.0224766  54.9360636
  12.4277821  64.2751823  56.1798644  11.9566643  63.8685670  55.7032745
  17.8173469  56.7323868  46.2181442  18.2018622  56.5131575  46.9697987
  17.5685090  57.5586814  46.3482518  17.8375542  56.8222014  46.3482519
  17.9842010  50.0130283  65.9344026  17.6695451  50.7829846  65.6713589
  17.6631942  49.4500539  65.3496253  17.8900929  50.0440552  65.8085376
  28.5508657  60.5070506  57.2292111  28.2454474  61.2398563  57.5905426
  27.8314873  60.1008435  56.9484897  28.3995999  60.5552239  57.2405248
  19.5592126  61.9894001  53.5600339  19.6331135  61.8269173  54.4142189
  20.3761633  62.1784191  53.3160821  19.6908485  61.9930743  53.6498365
  34.2510449  57.1463507  56.5560455  34.1834949  57.1659466  55.6863042
  34.2366111  57.9893834  56.7816126  34.2389206  57.2737241  56.4612932
  13.3197883  62.3351864  50.5894782  12.4936001  62.5813601  50.4629061
  13.3809874  62.2563945  51.4556841  13.2072050  62.3596813  50.6983727
  15.5373907  48.4020805  51.5490223  14.6696332  48.4743404  51.6147832
  15.8249111  49.2042884  51.7378198  15.4513655  48.5314952  51.5864989
  24.6606796  48.5498664  59.8801544  25.4060388  48.3608475  59.4664970
  24.2444100  49.0756902  59.3215401  24.7091770  48.6000810  59.7366118
  18.0996712  64.9528744  48.2913812  18.3895010  64.5617725  47.5673039
  18.8300193  65.1345449  48.7319088  18.2503596  64.9222558  48.2496619
  32.0369066  55.9207893  54.8307049  32.5876988  55.2875962  55.0704141
  32.0213182  56.4523285  55.5222554  32.1154263  55.9056841  54.9685908
  18.6891457  59.7546490  59.3766943  18.1903151  60.4662258  59.4551831
  19.4991682  60.0747157  59.3385105  18.7347564  59.9073339  59.3823511
  16.0402628  66.9296126  51.3573962  15.8202923  66.6393481  52.1500629
  15.8197150  66.2711082  50.8291874  15.9750222  66.7895835  51.3962871
  14.9519575  59.0169443  53.6229664  14.6632823  58.3906914  54.1575391
  15.8202923  58.9589730  53.6894344  15.0379827  58.9156987  53.7120618
  25.7397473  54.1604226  53.9411646  25.3962239  53.4394562  54.2918895
  25.8390515  53.9518078  53.0990004  25.7039515  54.0228430  53.8683326
  18.2070583  68.3025516  50.1404654  18.8594641  67.7701959  50.3695681
  17.5096192  67.9494169  50.5272529  18.2001301  68.1715039  50.2316822
  15.1551848  60.6564694  49.5472029  15.9097816  61.0377733  49.7607491
  14.5622461  61.1075838  50.0018725  15.1788562  60.7793521  49.6454907
  26.2010502  60.6229930  49.4835634  26.7668534  61.2823140  49.3994177
  25.5538405  60.9679629  49.9552036  26.1889258  60.7711872  49.5408390
  17.6158515  52.6127534  64.6729241  16.8058291  52.9185314  64.5619083
  18.0933202  53.3333117  64.7881825  17.5661994  52.7642136  64.6736312
  16.4750075  61.8273255  54.9212144  15.9530828  61.9673547  55.6064009
  16.8624095  61.0683920  55.1114262  16.4553776  61.7358779  55.0513221
  13.4641259  51.8779064  48.9907099  13.1766055  51.5080335  48.2539046
  14.1511727  52.3473919  48.7290804  13.5230156  51.8926033  48.8422175
  22.6717080  63.5668715  48.9072713  22.4303756  62.8336575  48.4999778
  22.8518413  64.1155572  48.2539046  22.6624704  63.5391106  48.7502936
  17.9016400  58.8577274  50.3193635  17.7059183  59.4652009  49.7253938
  18.1250746  58.1645218  49.8385309  17.9051041  58.8454800  50.1609716
  16.2994930  55.7432012  50.4374504  17.0217582  55.9073170  49.9778310
  15.8202923  56.4641677  50.3313843  16.3358661  55.8730242  50.3540118
  24.2588438  52.0795811  55.8171189  23.4199539  52.1057090  55.5809452
  24.3292805  52.7266547  56.3976535  24.1456832  52.1791937  55.8680305
  13.9502547  58.1490085  59.5428643  14.4623644  58.4274338  58.8937403
  13.6638890  58.8879379  59.9091456  13.9837410  58.2992438  59.5018521
  22.7057716  48.9781188  50.5498804  23.4084069  48.7788936  50.0718763
  22.4401905  48.2057131  50.8567648  22.7704349  48.8344154  50.5244246
  28.1345962  57.2863798  53.1032430  28.0479936  57.4419224  53.9567209
  27.6796442  57.9301873  52.7291835  28.0549219  57.4039553  53.1739537
  11.0369453  52.6560277  49.8392380  11.1385590  53.4586438  50.1673355
  11.8325340  52.4547612  49.5415460  11.1697359  52.7446175  49.8427735
  17.4686273  50.2416473  59.6029685  17.2769470  50.2571608  60.4529109
  18.3184869  50.4380148  59.5796340  17.5661994  50.2730825  59.7252980
  11.8533186  52.7707455  57.5813501  11.7118677  51.9191395  57.7058009
  12.1373749  52.8136115  56.7575707  11.8741032  52.6507205  57.4781126
  22.0071778  54.6074545  51.7257990  21.7606492  54.5270296  52.5594779
  22.3356901  53.8228013  51.5320517  22.0193022  54.4800810  51.8205513
  25.9019827  61.3157904  55.5144771  25.7634186  62.0138950  56.0193513
  25.1219825  61.1606561  55.1580953  25.7663054  61.3958071  55.5371045
  24.2397912  57.6154280  61.7667153  24.2345950  56.7434096  61.7709579
  24.9458906  57.8142449  61.2936608  24.3442916  57.5158154  61.6974188
  17.9668805  57.3431264  61.1380973  18.1112181  57.9232472  60.5024083
  18.3144454  57.7207560  61.8430827  18.0396267  57.4851968  61.1479968
  20.1388723  56.5421432  58.9206104  19.3912037  56.7352446  58.5154383
  20.2930248  55.7166652  58.6830226  20.0511150  56.4486543  58.8251510
  17.0396560  65.5334035  58.0042000  17.1886124  64.9736951  57.3515404
  17.8196562  65.6126037  58.3874518  17.1770654  65.4619601  57.9638949
  27.3973200  60.6736158  46.2761270  27.0180008  59.8873296  46.2690560
  26.7339445  61.2223015  46.1332914  27.2431674  60.6380982  46.2542067
  19.5649861  65.7048678  59.2826490  19.4893532  65.0357489  59.8377279
  19.4939720  66.4066466  59.7967157  19.5430468  65.7093586  59.4403339
  20.3790500  50.4371983  59.8101508  20.8363114  51.1695957  59.9374300
  20.4546828  50.0138448  60.5688764  20.4581469  50.4829221  59.9402585
  12.6223491  50.6837802  60.8990952  12.0865680  50.0718161  61.2151719
  12.6841256  51.2585938  61.5524618  12.5519123  50.6784730  61.0426379
  24.8517826  43.6161858  53.6795351  24.9701394  44.0738321  52.9462654
  24.6780001  42.8107119  53.3931569  24.8436997  43.5655630  53.5296285
  20.2220108  64.2249677  50.1150096  20.9869999  63.9559321  49.7932761
  20.1198198  63.7399688  50.8320159  20.3201603  64.1139242  50.1729924
  18.2572878  52.4274087  56.6543332  17.4668952  52.2465547  56.9760668
  18.6533500  51.6501039  56.6373627  18.1989754  52.2861548  56.6995881
  22.7438768  61.2561861  42.0950046  23.5111753  61.3161986  41.6855898
  22.2970077  60.6842302  41.6106364  22.7912196  61.1798437  41.9627756
  23.6416564  60.0616517  54.3802778  22.9661566  59.8301749  54.8816165
  23.6508940  59.4537700  53.7544883  23.5435068  59.9375442  54.3618930
  20.7710708  54.9034346  61.1366831  20.7069849  55.7644302  61.0086968
  20.9107896  54.5866339  60.3362382  20.7826178  54.9834512  60.9995044
  25.6433298  62.9181649  46.6112956  25.7253136  63.7248635  46.2874407
  26.1283041  62.9377608  47.3353730  25.7270456  63.0402312  46.6699855
  19.4529802  57.5966485  55.2783034  19.0292051  57.7970984  54.5422052
  19.2774657  56.7495333  55.3907334  19.3640682  57.5015267  55.1856724
  18.9541495  69.1116998  57.7404491  19.4437425  68.4127787  57.5580156
  18.3825727  68.8140868  58.3280549  18.9426025  68.9643222  57.8005532
  14.7412247  58.0918537  50.7111007  14.8976866  58.0265339  51.5666999
  15.0812840  58.8667089  50.4989686  14.8145482  58.1967735  50.8065601
  21.2791391  57.4676420  49.5804370  21.8206937  56.9646801  50.0442990
  21.5937950  57.4141615  48.7693855  21.4055788  57.3855841  49.5288182
  19.4477841  62.8593772  46.8644398  19.5170661  62.0008310  47.0037398
  20.2266296  63.0765653  46.5363422  19.5730691  62.7646636  46.8361555
  22.4280661  52.3612725  59.6326670  22.6422630  51.7223639  59.0790024
  21.8114560  52.8058548  59.2034532  22.3685990  52.3322868  59.4877101
  23.8385329  65.2831473  51.0780891  23.4465120  64.9798188  50.3603757
  23.9938401  66.1200563  50.8885845  23.8038918  65.3615310  50.9437388
  11.3146508  55.2753487  51.0271774  11.6945473  55.6938032  50.3632041
  10.7401873  55.8566943  51.3340617  11.2857833  55.4231346  50.9748515
  24.5919749  53.9701790  60.5709977  23.7796430  53.6627680  60.6523150
  25.0509683  53.4900790  61.1352689  24.5400133  53.8538282  60.6664571
  24.0025003  61.8481462  51.0186922  23.6439658  62.0196105  51.7950954
  23.5163714  62.3094667  50.4614920  23.8783700  61.9420433  51.0512191
  21.8195389  45.4712660  54.6214013  20.9488947  45.4451381  54.5747322
  22.0735731  45.2989852  53.8039859  21.7288949  45.4422804  54.4934150
  18.7913369  57.5280627  43.5587156  19.0805894  58.3045510  43.8330730
  18.8785168  57.0169359  44.2601655  18.8467625  57.5672546  43.7029654
  21.6873256  55.3761861  65.3538680  22.1572887  56.0003978  65.7406554
  21.7335136  54.7078837  65.9131894  21.7641132  55.3696541  65.4938751
  18.8444530  47.4818889  56.0787483  18.3283018  46.7899080  56.2039062
  18.2838459  48.1489666  56.0250082  18.6851043  47.4782146  56.0893549
  20.9136763  48.0211849  57.9080336  20.5268516  48.0460880  58.6893866
  20.4269701  47.4553527  57.4554853  20.7849272  47.9407600  57.9568240
  25.1629743  62.7385358  61.9654123  25.8009463  62.2445553  61.6316579
  24.5203834  62.6662758  61.3806349  25.1623969  62.6544366  61.8296477
  26.8886743  54.5874504  56.5320038  26.4614351  54.5000852  55.7768138
  26.2512796  54.6952279  57.1174882  26.7316350  54.5907164  56.5065480
  20.5793905  44.9078834  60.1990596  21.2087023  45.4439134  59.9211666
  20.7479768  44.8156193  61.0504162  20.6971700  44.9740196  60.2839124
  20.3807820  49.6950029  62.4717007  21.2081249  49.4235178  62.5275622
  20.4015666  50.4910871  62.8280826  20.5060670  49.7729783  62.5332190
  25.2183999  63.4305166  58.6059479  26.0076377  63.0794231  58.7261561
  25.3927597  64.2441554  58.3436113  25.3604281  63.4991023  58.5847347
  14.9577310  56.8413892  55.6587268  14.1165316  56.7417766  55.8666162
  15.1667318  57.6109372  56.0101589  14.8642002  56.9405935  55.7414583
  12.4352877  54.4633429  53.4872019  12.0409574  54.5376440  52.7122128
  11.8792994  54.8491375  54.0380381  12.2955689  54.5315203  53.4539679
  24.0717823  47.4414723  53.1675898  24.2767417  47.3737031  54.0132895
  23.7444247  48.2473544  53.0997075  24.0533071  47.5500663  53.2835553
  18.7693975  54.7695291  54.9084866  18.4657112  54.2151279  55.5095273
  18.0673395  54.9487501  54.4212900  18.6210184  54.7140073  54.9254571
  17.8260072  52.0795811  49.4729567  18.1019806  51.3614723  49.0607135
  18.4258741  52.6780731  49.2650674  17.9553336  52.0616181  49.3810329
  16.8312326  61.9845012  59.6156963  16.7232680  61.9947074  60.4819021
  17.0408107  62.8099792  59.4261917  16.8462437  62.1086086  59.7161055
  21.3270592  49.7509328  47.7476163  21.7814339  49.9219888  48.4724007
  21.8010638  49.1377439  47.3473938  21.4638912  49.6860213  47.7949924
  14.8486118  59.2357654  57.0778901  14.2574051  59.8767152  57.0481916
  15.6107141  59.6595271  57.0510201  14.8734378  59.3933492  57.0694048
  15.2446740  50.3959652  57.7446919  15.7048222  50.4698581  58.4822042
  15.2902847  51.1940906  57.3946740  15.3197296  50.5253799  57.8019675
  16.8930090  51.0626347  62.3118946  16.5015655  50.4159694  62.7474724
  17.0615953  51.6537782  62.9313201  16.8601000  51.0540615  62.4681652
  30.9676539  59.0663424  58.0756179  31.0259663  59.5150072  58.8216156
  30.3343007  59.4762237  57.6386259  30.8827834  59.1937158  58.1208728
  24.6075634  64.6866966  54.5110925  24.4095322  65.1757780  53.8167137
  23.9863345  64.8908207  55.0895059  24.4863198  64.7883504  54.4934149
  18.6683612  56.4551862  48.8521170  19.4125657  56.8426139  49.0904120
  18.8144308  55.6109288  49.0161658  18.7994197  56.3882335  48.9115139
  20.5863188  48.2502121  53.8853031  19.7399233  48.4224929  53.7594381
  20.5834320  47.4451465  54.2218859  20.4610338  48.1563150  53.9164158
  21.6561488  52.0277336  54.7515089  21.1821442  51.5019098  55.2620400
  22.0279624  51.4806809  54.1829951  21.6411377  51.8693332  54.7430236
  12.0334518  54.0248842  60.1198635  12.8960131  53.9244552  60.0335965
  11.7026301  53.4443552  59.5584207  12.1119715  53.9240469  60.0244041
  27.9198219  57.0879711  56.1621870  27.6796441  56.2486127  56.1664296
  28.3990226  57.1679878  56.8862643  27.9550402  56.9761111  56.2696672
  23.5844988  52.9213890  47.8140843  23.0568006  53.0042634  47.1246552
  24.0440696  53.6631762  47.8105488  23.5746838  53.0434553  47.7115538
  26.5249436  58.2531118  60.0456174  27.2483635  57.8003644  59.8667194
  26.2599398  58.5335784  59.2628502  26.5930709  58.2282086  59.9034889
  15.3936304  52.8491291  56.7809053  14.7689374  52.8609683  56.1735006
  15.0581899  53.3251467  57.4300293  15.2521796  52.9209808  56.7865622
  15.5778053  51.1916410  42.8381738  15.2290857  51.8436135  43.3013287
  15.0974499  51.1773523  42.1105609  15.4548297  51.2859463  42.7992829
  12.1061980  60.9091752  58.2212817  11.5761904  60.2184190  58.2707792
  12.3787073  60.9001937  57.3925526  12.0686702  60.8058883  58.1060233
  23.1382070  61.4917454  46.9450500  23.8616269  61.9575567  46.8015073
  22.6982661  61.5591064  46.1948097  23.1797762  61.5701291  46.8135281
  22.3068225  58.3514996  58.1951189  21.6925218  57.8073046  58.4899824
  22.8235510  57.8379233  57.7157005  22.2923888  58.1951405  58.1675417
  21.5464522  59.4219266  55.9295488  21.1192130  58.7968985  55.4960923
  21.5389467  59.1394188  56.7554495  21.4823664  59.2872047  55.9875315
  14.6627050  54.4584439  58.9983922  14.8220536  53.7027763  59.4035643
  14.4819943  55.0075379  59.6524659  14.6592408  54.4278253  59.1546628
  22.6047352  46.6245675  59.5534711  22.1087914  46.8209349  58.8626278
  23.3616415  47.0238343  59.3823513  22.6434177  46.7123409  59.4254848
  19.8750232  50.2988021  56.1438022  19.8992719  49.7648133  55.4550802
  20.1261706  49.7905330  56.8063612  19.9160151  50.1448925  56.1402666
   7.3857822  57.5819516  55.5781166   7.2801271  57.5366360  54.7133250
   6.6358042  57.9273296  55.8595451   7.2593425  57.6260424  55.4918495
  16.1551554  49.0258839  55.5243766  16.1949926  49.5268046  56.2378473
  15.3301219  49.1169233  55.2549689  16.0391080  49.1140655  55.5894304
  18.3381167  58.5919579  63.6264060  17.4876798  58.7291293  63.7621705
  18.5009295  57.8583357  64.0711762  18.2365031  58.5033680  63.7119660
  17.5765918  55.5419349  57.8217665  16.7457847  55.7093167  57.6152913
  17.5217435  55.1655300  58.6066550  17.4455333  55.5109080  57.9066193
  15.3849701  49.0328242  63.4574076  16.0102404  48.4890375  63.7303508
  14.9300181  48.5523159  62.8881866  15.4097962  48.8817723  63.4135669
  15.9501962  53.8174940  48.3507783  16.0904923  54.3147405  49.0536424
  16.4484494  53.1161235  48.4921996  16.0443042  53.7876919  48.4759362
  15.9802184  54.6842051  45.6800359  16.6147263  55.2802476  45.6149821
  16.0627795  54.3845509  46.4946230  16.0858735  54.7282960  45.7903446
  28.9584750  57.2157529  58.5486724  29.5502590  57.8554779  58.5804922
  29.3943744  56.5180565  58.8378790  29.1103181  57.2075879  58.5967556
  17.5581167  50.6156027  45.6545801  17.8797008  50.1359109  45.0005064
  17.8208111  51.4255673  45.4636613  17.6447192  50.6645925  45.5301293
  20.7878140  61.6374901  59.1744618  20.2803231  62.1910748  59.6185248
  20.4904786  61.6983191  58.3563392  20.6683025  61.7281212  59.1193074
  22.9540322  50.0028221  58.0169280  23.3795393  49.5500747  57.4052807
  22.3397315  49.4488291  58.2934068  22.9268967  49.8542197  57.9674306
  12.4855172  56.8809892  48.9489905  12.9947401  57.4774400  49.3301211
  12.9589444  56.6135866  48.2666325  12.6298548  56.9295708  48.9044428
  23.3985920  65.5538159  47.1048561  22.6815230  65.3799021  46.6395798
  24.0492657  65.3190731  46.5724047  23.3887770  65.4933951  46.9577779
  21.3934545  46.4743321  51.4259857  20.7502863  46.3240967  51.9944996
  21.0533952  46.2285666  50.6608962  21.2479622  46.4155443  51.3962873
  25.9833891  54.4302747  50.8489866  25.3125081  54.9732450  50.7202932
  26.6773641  54.8997603  50.6071561  25.9862759  54.5801019  50.7945394
  20.0320625  66.5699459  56.0801624  19.8086279  65.8118289  56.4485651
  19.5430468  66.5997481  55.3582064  19.9264074  66.4621684  56.0278365
  14.8445704  53.5166151  51.8163086  14.1257693  53.9330283  52.0835949
  15.2158066  54.0820389  51.2654724  14.7937635  53.6615432  51.7745893
  24.1445284  54.1494000  57.7065082  24.1243212  53.9677295  58.5599860
  24.1924485  55.0206018  57.6824665  24.1479925  54.2510538  57.8288376
  22.0891614  60.7381192  63.6313558  22.0487469  60.0930869  63.0458714
  22.9014932  60.6817809  63.9438970  22.2034768  60.6340158  63.5910507
  18.6799082  66.7899917  53.5338709  18.2659480  66.1274048  53.1442551
  19.3646456  66.9377776  53.0134403  18.7197453  66.7140576  53.3995206
  22.0464376  65.9490003  54.2862326  21.6480659  66.0592273  53.5183146
  21.4315595  66.1572069  54.8688885  21.8963265  65.9963571  54.2593625
  20.6192278  52.5564151  47.1536465  20.0257117  52.8781147  46.6021032
  20.6567556  51.7105246  46.9457571  20.5366667  52.4788479  47.0419237
  27.5786079  46.0077043  54.6864552  27.0716943  45.3006182  54.6185729
  28.3753512  45.6770232  54.8165628  27.6213318  45.8550194  54.6963547
  23.4950094  52.5143655  50.5838216  23.2663788  52.5376357  49.7416574
  23.7548171  51.6901122  50.7033226  23.4996283  52.3959735  50.4763413
  17.7769323  54.3678128  60.1863316  17.2648226  53.7599311  60.5448347
  17.6048819  55.0834721  60.6537292  17.6758960  54.3841427  60.3079539
  12.6235038  52.8115703  62.8365678  12.4537628  53.4717078  62.2913884
  12.1800988  53.0222265  63.5578167  12.5334371  52.9401686  62.8627307
  16.5494857  51.0520201  51.8792411  17.0252223  51.4137281  51.2442592
  16.0483457  51.7076669  52.1592554  16.5460216  51.2014390  51.8269152
  29.7806219  60.5241969  47.6705416  30.1639824  61.2733326  47.9003513
  28.9850332  60.7707789  47.4117405  29.7200001  60.6711663  47.6662990
  21.6538393  52.2902373  62.6265571  22.2109823  52.0616182  61.9944037
  21.3299458  53.0508038  62.3500784  21.6884803  52.3686209  62.4922068
   9.5237102  55.7162569  58.0954167   8.9763822  55.0463215  58.2135036
  10.3129480  55.3492417  58.1597635   9.5589286  55.5627555  58.1222868
  19.3721511  55.3770026  63.5917578  20.1232838  55.6921703  63.9057133
  19.5644087  55.1749197  62.7651500  19.5112925  55.3937408  63.5160974
  18.5921510  53.1961401  45.2465795  18.9720475  53.2141030  44.4616910
  17.8514106  53.6415390  45.1256642  18.5390348  53.2643176  45.1129363
   8.2824072  54.9283377  55.2500190   8.1045833  54.4759986  55.9755106
   7.9943094  55.7309538  55.4338668   8.2137025  54.9805935  55.3843693
  23.9447653  56.1841094  54.4877581  24.4401318  55.4664089  54.4481601
  23.1347428  55.8811892  54.3732068  23.8991546  56.0338740  54.4651307
  19.3906264  60.0338907  46.6374585  18.5817587  59.7105581  46.5907895
  19.8981173  59.3272130  46.5702834  19.3455931  59.8820224  46.6204880
  10.0196542  57.4611101  52.3621949   9.1542061  57.4496791  52.2504721
  10.1195357  57.2741323  53.2093089   9.9070708  57.4317162  52.4710894
  26.0099472  58.9344782  57.1754709  26.4354543  58.4119204  56.6225135
  25.6456391  59.5325619  56.6543332  26.0186074  58.9455009  57.0163719
  15.6453551  67.2308999  55.9352055  15.9600110  68.0445388  55.9429837
  16.0546965  66.8459218  56.6034214  15.7521649  67.2937702  56.0356147
  22.5978071  62.6479046  53.5055867  23.0689249  63.3619309  53.6745852
  22.9338250  62.0477796  54.0415736  22.7173186  62.6650510  53.6088243
  24.6855056  64.2580359  65.6847939  24.7952021  63.4688920  66.0404686
  25.0145952  64.1686296  64.8822277  24.7507461  64.1286212  65.6190330
  19.5147566  47.4206517  60.4613962  19.6475472  46.6237510  60.7894937
  19.8992719  47.9472920  61.0412237  19.5903895  47.3806433  60.5957465
  23.2352017  62.4396980  60.2683560  22.6872963  61.8154864  60.0003625
  23.6965046  62.6291252  59.5527639  23.2219227  62.3756030  60.1233991
  22.5879921  44.3436843  57.0595055  21.7825885  44.2334572  57.3762893
  22.4586657  44.4449298  56.2024921  22.4500054  44.3420513  56.9803095
  26.0445882  50.5082335  57.6534752  25.4608871  51.0091541  57.2412319
  26.3650176  50.0011891  57.0199075  26.0059057  50.5074170  57.4993259
  18.5840681  49.4222929  47.9293427  19.4056375  49.5921242  47.6875122
  18.1210332  49.5770190  47.2059724  18.6371843  49.4704662  47.7865071
  17.1736013  47.4165692  58.7091855  17.7180426  47.0756818  59.2996197
  17.2272948  48.2751153  58.8513140  17.2625132  47.4920951  58.8173729
  12.9866572  61.1782108  55.5830663  13.5911429  61.1377942  54.9544484
  12.7793884  62.0253260  55.6134719  13.0455469  61.2970110  55.4946780
  22.8010344  63.4448053  56.7992901  23.6208717  63.3011019  57.0609196
  22.5204421  64.0694252  57.3409339  22.8807087  63.5158405  56.9180840
   8.2217854  60.1616725  55.4529587   8.1242132  59.3512997  55.7619643
   9.0046724  60.1408519  55.0675855   8.3233990  60.0383815  55.4416449
  39.2723994  71.1012904  49.7635777  39.2417998  71.9557541  49.9354047
  39.8705343  70.8008197  50.3221921  39.3561152  71.1829401  49.8710579
  32.4723679  70.1888555  54.5188708  31.6161574  70.3497054  54.5697824
  32.5191333  69.3180619  54.5393769  32.3522790  70.0839357  54.5294774
  26.8564819  79.7251273  50.2825939  26.1047718  79.3466812  50.0541984
  27.3050830  79.7569707  49.5344749  26.8114485  79.6736881  50.1383441
  35.7817395  76.4575081  64.1249164  36.4884163  75.9627112  64.2536098
  35.9705331  76.8984163  63.3951822  35.9145301  76.4493431  64.0358209
  32.3089778  80.1476643  45.7111486  31.9741147  80.8253564  45.2755708
  32.8216649  79.7581954  45.1228358  32.3355360  80.1901221  45.5598278
  35.3175500  72.2480599  57.1620359  35.8631460  72.9265686  57.2214329
  35.2592376  72.1068060  56.3021941  35.3891414  72.3272601  57.0432420
  28.4349575  79.7369666  52.5488712  28.5359938  78.9270019  52.8585839
  27.8391320  79.6426612  51.9188390  28.3622113  79.6034694  52.5014950
  37.0940569  73.6765206  48.0354087  36.9780094  74.4272893  48.4646225
  37.8896455  73.4189160  48.2850174  37.1945158  73.7500053  48.1358179
  21.6314619  75.7589952  52.1741045  21.3964803  74.9257604  52.0673314
  21.7700260  76.0394618  51.3602246  21.6170282  75.6773455  52.0383400
  23.9304707  67.9275683  55.0725353  23.3109738  67.3368330  54.9035368
  23.8288570  68.5187118  54.4389676  23.8242382  67.9279765  54.9530343
  28.9770894  77.6659230  49.3223429  29.2986735  78.2064437  48.7184737
  29.6242991  77.0956001  49.4545719  29.1196949  77.6618405  49.2530465
  31.0272602  69.6675224  49.4057816  31.7252767  69.8463352  49.8979279
  31.3424935  69.1445564  48.7828205  31.1767939  69.6168997  49.3859826
  23.6573840  71.4727964  57.3168922  23.5332536  72.0590410  57.9518741
  24.3092124  70.9788160  57.6181197  23.7347489  71.4866769  57.4554851
  31.2160538  76.0545670  49.3937608  31.6554173  75.4462770  49.8392380
  31.0665200  75.6753043  48.6223073  31.2582003  75.9084141  49.3456775
  28.6832181  74.6489681  56.5956433  29.3281183  74.1562124  56.2767382
  28.9233958  74.7914468  57.4222511  28.8142766  74.5967124  56.6705966
  31.2218272  77.4944587  56.2463326  31.5041515  76.6995993  56.0250081
  31.9504432  77.9725175  56.2668387  31.3707836  77.4479184  56.2166341
  29.1999466  65.0367621  53.4879091  28.8702796  65.4878765  52.8182789
  28.5244468  64.9583784  54.0352097  29.0509902  65.0918756  53.4702314
  34.8169874  74.4072851  46.3468377  34.7321169  75.2633817  46.4917946
  35.3054257  74.1317175  47.0150536  34.8758771  74.4930172  46.4670458
  36.4075874  61.0253144  51.7328701  36.0929315  61.7156623  52.1649124
  35.8902815  60.9697926  51.0314202  36.2840344  61.1188033  51.6925650
  35.7488307  71.0257645  47.8466112  35.2199779  71.2417278  48.5063418
  36.2713327  71.7193783  47.7667081  35.7476760  71.1600782  47.9321711
  41.2036360  76.6003949  53.2199156  40.3734063  76.8114593  53.3832573
  41.1545613  75.7741004  52.9441440  41.0743096  76.5093556  53.2036522
  27.6387915  74.9220862  46.6473580  27.0545130  75.4270893  47.0539444
  27.2358010  74.6963249  45.9070172  27.4927219  74.9629110  46.5978605
  29.2646098  79.4307804  56.0547066  28.7473039  79.0715219  55.4508374
  29.9620489  78.9069978  56.0653132  29.2911679  79.3005492  55.9677325
  32.9209690  79.8802618  62.0163239  33.0093036  79.6928758  62.8641449
  33.3499402  79.2340047  61.6168086  32.9971792  79.7565625  62.0834990
  30.4880150  79.1633778  60.9980901  29.9250984  78.7506387  61.5220562
  31.2501173  79.0886683  61.4174044  30.5174598  79.0911178  61.1373902
  32.0965130  71.1686514  45.1242501  32.3361133  71.3764498  44.3117844
  32.4180971  70.3644023  45.2331445  32.1802287  71.0800615  45.0203054
  27.4055420  63.0979910  48.9702038  28.1601388  63.4658227  48.7319089
  27.2282954  63.4719464  49.7381218  27.4909898  63.2078097  49.0486927
  40.6990319  69.2474350  57.0149578  39.8618740  69.3176537  57.2497172
  40.6678549  69.2498845  56.1423880  40.5708601  69.2584577  56.9209126
  27.0955048  71.3907386  62.7297946  27.2675551  71.2813280  63.5783228
  27.6324405  72.0361791  62.4929139  27.2000052  71.4699387  62.8203043
  25.7612484  65.5050229  45.6680151  25.5788058  65.7222109  44.8421144
  26.6238097  65.6189241  45.7238766  25.8617074  65.5540126  45.5534638
  25.3726916  77.3438151  53.1103139  26.2115816  77.5761084  53.1576901
  25.4038686  76.4742462  53.0410175  25.5008634  77.2495097  53.1067784
  25.9979619  77.7639026  57.4116445  26.5377844  77.6210157  58.0819817
  25.3149566  78.1635777  57.7800471  25.9771773  77.8018697  57.5650867
  31.4412204  62.5076639  48.7029175  32.1698364  62.3292594  48.2567332
  31.5307097  63.3494719  48.9136353  31.5618866  62.6060518  48.6682693
  35.4220504  73.4430027  52.6061469  36.1778019  73.8761541  52.6450378
  35.5282829  72.7934796  53.1796105  35.5490675  73.4107510  52.6959495
  38.4600675  77.2703304  53.3563872  38.0235907  77.2740046  54.1122844
  38.1263591  77.9508803  52.9243450  38.3463295  77.3715760  53.4044705
  33.0329749  79.3111637  64.6807023  33.8170166  79.4242484  65.0462765
  32.8326344  78.4852774  64.8765708  33.1195774  79.2058356  64.7641409
  21.4016764  73.9839317  57.5650866  21.1355180  73.1678433  57.7241857
  21.4155329  74.0292472  56.6946382  21.3641487  73.8696222  57.4604348
  38.3798158  64.3117132  55.5993300  39.0224067  64.3815236  56.1855215
  38.6321179  63.6446355  55.0972842  38.5120290  64.2243480  55.6120579
  25.3074511  68.7824401  44.1802625  24.5932689  68.4962581  44.5925057
  25.7918480  69.1221027  44.8209012  25.2733875  68.7906051  44.3358259
  26.1515371  67.5217695  60.2117874  25.4587168  67.0514675  60.4578606
  26.7675698  67.2956000  60.7859581  26.1399901  67.4184827  60.3327027
  33.1900142  81.2221739  58.3273478  32.3915388  80.9821239  58.5847347
  33.6386154  81.2736132  59.0740526  33.1374754  81.1944130  58.4758402
  32.4821829  77.2854355  44.5564433  32.8972978  76.9539379  43.8648928
  31.6513759  77.0523257  44.4284569  32.4209838  77.2025611  44.4355280
  21.8110178  74.7698096  54.8462611  21.6285751  74.7444982  53.9934903
  22.5459847  75.2397034  54.8851519  21.8924242  74.8359458  54.7260529
  37.8809852  75.0049606  51.9895498  38.1165442  75.1494805  51.1622349
  38.0299416  75.7692014  52.3827012  37.9375656  75.1388661  51.9259102
  24.8755930  71.4883099  61.3544719  25.5995902  71.4736130  61.8409614
  24.9772066  72.1978454  60.8566688  24.9974139  71.5907802  61.3523506
  39.7100309  73.8451272  49.8265102  40.0408526  74.3778912  49.2205197
  40.2833397  73.8990160  50.4827053  39.8433988  73.9320841  49.8342884
  32.2500879  74.9682184  66.2193666  31.4573860  75.2825695  66.4046286
  32.3649806  75.1833652  65.3814451  32.1496290  75.0466020  66.1232001
  34.9232198  71.6916175  50.5088682  35.0179053  72.4305469  50.9628308
  34.2991042  71.2633650  50.9423247  34.8441228  71.7377495  50.6396830
  33.1784672  74.8702387  61.1578963  33.7523534  74.2329632  61.3127527
  33.0999476  74.8706470  60.2888621  33.2517907  74.7767499  61.0525374
  21.7781088  71.6491597  54.9961677  22.3554591  71.5128048  55.6353923
  21.0795150  71.1927381  55.2507262  21.7602110  71.5613863  55.1283967
  35.1755220  73.5364915  43.7425634  35.0935382  73.6067102  44.6080621
  35.8134940  74.0994658  43.5509375  35.2575057  73.6303886  43.8415584
  28.5348391  73.3025653  53.2100160  28.2767635  72.4697387  53.1831460
  28.5896873  73.5283265  52.3692661  28.5048169  73.2123424  53.0820297
  33.6149441  65.4054103  53.3104253  32.9105768  64.9163289  53.4688172
  33.6634415  65.4176578  52.4392698  33.5179492  65.3343751  53.2043593
  27.5083103  70.8563415  53.6965055  26.9332694  71.0155583  54.3329016
  27.1318779  70.2198824  53.2333506  27.3685915  70.7861228  53.7219614
  31.1756391  69.3286764  58.5557434  30.7870824  68.9040982  57.9009625
  30.5111090  69.5768914  59.0634460  31.0203319  69.3025485  58.5345302
  40.8179661  69.0861769  51.3305264  40.5616225  68.2741710  51.1403146
  41.6608975  69.0939336  51.1035451  40.9045686  68.9673766  51.2690081
  17.2539922  70.5003490  51.7109496  17.3400174  70.1235358  52.4923026
  17.8815719  70.1263935  51.2329454  17.3596473  70.3888972  51.7554973
  34.9982753  63.0261393  56.0681418  35.3793265  62.3439564  56.4549292
  34.1946037  62.7370995  55.8857082  34.9359215  62.8828442  56.0985474
  32.2795330  73.5585369  46.7534241  33.0935969  73.8500262  46.6417012
  32.2154471  72.9045231  46.1792534  32.3898069  73.5050564  46.6523078
  38.5004820  76.2411365  61.1663816  38.2643457  75.4099430  61.0475877
  39.1448049  76.1896972  61.7518660  38.5599491  76.1109053  61.2349710
  28.1503238  77.0306886  51.8806553  28.7877185  76.7918634  52.4258346
  28.5758310  77.2344045  51.1459713  28.3079404  77.0257897  51.8523710
  28.7906053  72.2509176  46.2181442  29.1751206  72.0316883  46.9697987
  28.5417673  73.0772121  46.3482518  28.8108126  72.3407322  46.3482519
  28.9574593  65.5315591  65.9344026  28.6428034  66.3015154  65.6713589
  28.6364526  64.9685847  65.3496253  28.8633513  65.5625860  65.8085376
  39.5241241  76.0255814  57.2292111  39.2187058  76.7583871  57.5905426
  38.8047456  75.6193743  56.9484897  39.3728583  76.0737547  57.2405248
  30.5324710  77.5079309  53.5600339  30.6063718  77.3454481  54.4142189
  31.3494216  77.6969498  53.3160821  30.6641069  77.5116051  53.6498365
  45.2243033  72.6648814  56.5560455  45.1567533  72.6844774  55.6863042
  45.2098695  73.5079142  56.7816126  45.2121789  72.7922549  56.4612932
  24.2930467  77.8537172  50.5894782  23.4668584  78.0998909  50.4629061
  24.3542458  77.7749253  51.4556841  24.1804634  77.8782121  50.6983727
  26.5106490  63.9206113  51.5490223  25.6428916  63.9928712  51.6147832
  26.7981695  64.7228192  51.7378198  26.4246238  64.0500260  51.5864989
  35.6339379  64.0683972  59.8801544  36.3792971  63.8793783  59.4664970
  35.2176684  64.5942210  59.3215401  35.6824353  64.1186118  59.7366118
  29.0729296  80.4714052  48.2913812  29.3627594  80.0803033  47.5673039
  29.8032777  80.6530757  48.7319088  29.2236180  80.4407866  48.2496619
  43.0101650  71.4393201  54.8307049  43.5609572  70.8061270  55.0704141
  42.9945765  71.9708593  55.5222554  43.0886846  71.4242149  54.9685908
  29.6624041  75.2731798  59.3766943  29.1635735  75.9847566  59.4551831
  30.4724265  75.5932464  59.3385105  29.7080148  75.4258647  59.3823511
  25.9252158  74.5354751  53.6229664  25.6365407  73.9092222  54.1575391
  26.7935506  74.4775038  53.6894344  26.0112410  74.4342295  53.7120618
  36.7130056  69.6789534  53.9411646  36.3694822  68.9579870  54.2918895
  36.8123099  69.4703385  53.0990004  36.6772099  69.5413738  53.8683326
  26.1284432  76.1750002  49.5472029  26.8830400  76.5563041  49.7607491
  25.5355044  76.6261146  50.0018725  26.1521145  76.2978829  49.6454907
  37.1743085  76.1415238  49.4835634  37.7401118  76.8008448  49.3994177
  36.5270989  76.4864936  49.9552036  37.1621842  76.2897180  49.5408390
  28.5891099  68.1312842  64.6729241  27.7790875  68.4370622  64.5619083
  29.0665786  68.8518425  64.7881825  28.5394578  68.2827443  64.6736312
  27.4482658  77.3458563  54.9212144  26.9263412  77.4858855  55.6064009
  27.8356679  76.5869228  55.1114262  27.4286359  77.2544087  55.0513221
  24.4373842  67.3964372  48.9907099  24.1498638  67.0265642  48.2539046
  25.1244311  67.8659227  48.7290804  24.4962740  67.4111341  48.8422175
  33.6449663  79.0854023  48.9072713  33.4036339  78.3521883  48.4999778
  33.8250996  79.6340880  48.2539046  33.6357287  79.0576414  48.7502936
  28.8748984  74.3762582  50.3193635  28.6791767  74.9837317  49.7253938
  29.0983330  73.6830526  49.8385309  28.8783625  74.3640108  50.1609716
  27.2727514  71.2617320  50.4374504  27.9950166  71.4258478  49.9778310
  26.7935507  71.9826985  50.3313843  27.3091245  71.3915550  50.3540118
  35.2321022  67.5981119  55.8171189  34.3932122  67.6242398  55.5809452
  35.3025389  68.2451854  56.3976535  35.1189415  67.6977245  55.8680305
  24.9235131  73.6675393  59.5428643  25.4356228  73.9459646  58.8937403
  24.6371473  74.4064687  59.9091456  24.9569994  73.8177746  59.5018521
  33.6790300  64.4966496  50.5498804  34.3816653  64.2974244  50.0718763
  33.4134489  63.7242438  50.8567648  33.7436932  64.3529462  50.5244246
  39.1078545  72.8049106  53.1032430  39.0212520  72.9604532  53.9567209
  38.6529025  73.4487181  52.7291835  39.0281802  72.9224861  53.1739537
  22.0102037  68.1745585  49.8392380  22.1118174  68.9771746  50.1673355
  22.8057924  67.9732920  49.5415460  22.1429943  68.2631483  49.8427735
  28.4418856  65.7601781  59.6029685  28.2502053  65.7756916  60.4529109
  29.2917452  65.9565456  59.5796340  28.5394578  65.7916132  59.7252980
  22.8265769  68.2892763  57.5813501  22.6851261  67.4376703  57.7058009
  23.1106333  68.3321423  56.7575707  22.8473615  68.1692513  57.4781126
  32.9804362  70.1259853  51.7257990  32.7339076  70.0455604  52.5594779
  33.3089485  69.3413321  51.5320517  32.9925605  69.9986118  51.8205513
  36.8752410  76.8343212  55.5144771  36.7366770  77.5324258  56.0193513
  36.0952408  76.6791869  55.1580953  36.7395637  76.9143379  55.5371045
  35.2130495  73.1339588  61.7667153  35.2078534  72.2619404  61.7709579
  35.9191489  73.3327757  61.2936608  35.3175499  73.0343462  61.6974188
  28.9401389  72.8616571  61.1380973  29.0844765  73.4417780  60.5024083
  29.2877037  73.2392868  61.8430827  29.0128850  73.0037276  61.1479968
  31.1121306  72.0606740  58.9206104  30.3644620  72.2537754  58.5154383
  31.2662831  71.2351959  58.6830226  31.0243734  71.9671851  58.8251510
  38.3705783  76.1921466  46.2761270  37.9912592  75.4058604  46.2690560
  37.7072029  76.7408323  46.1332914  38.2164258  76.1566290  46.2542067
  31.3523083  65.9557291  59.8101508  31.8095697  66.6881265  59.9374300
  31.4279412  65.5323756  60.5688764  31.4314053  66.0014529  59.9402585
  23.5956074  66.2023110  60.8990952  23.0598264  65.5903468  61.2151719
  23.6573839  66.7771246  61.5524618  23.5251707  66.1970038  61.0426379
  31.1952691  79.7434985  50.1150096  31.9602582  79.4744629  49.7932761
  31.0930781  79.2584995  50.8320159  31.2934187  79.6324550  50.1729924
  29.2305461  67.9459395  56.6543332  28.4401536  67.7650855  56.9760668
  29.6266084  67.1686347  56.6373627  29.1722337  67.8046855  56.6995881
  33.7171352  76.7747169  42.0950046  34.4844337  76.8347294  41.6855898
  33.2702661  76.2027610  41.6106364  33.7644779  76.6983745  41.9627756
  34.6149147  75.5801825  54.3802778  33.9394149  75.3487057  54.8816165
  34.6241524  74.9723008  53.7544883  34.5167652  75.4560750  54.3618930
  31.7443291  70.4219654  61.1366831  31.6802433  71.2829610  61.0086968
  31.8840479  70.1051647  60.3362382  31.7558761  70.5019820  60.9995044
  36.6165882  78.4366957  46.6112956  36.6985719  79.2433943  46.2874407
  37.1015624  78.4562916  47.3353730  36.7003040  78.5587619  46.6699855
  30.4262385  73.1151793  55.2783034  30.0024634  73.3156292  54.5422052
  30.2507240  72.2680641  55.3907334  30.3373266  73.0200574  55.1856724
  25.7144830  73.6103844  50.7111007  25.8709449  73.5450647  51.5666999
  26.0545423  74.3852397  50.4989686  25.7878065  73.7153043  50.8065601
  32.2523975  72.9861728  49.5804370  32.7939520  72.4832109  50.0442990
  32.5670534  72.9326923  48.7693855  32.3788372  72.9041149  49.5288182
  36.1241082  77.1964375  66.6931282  36.9375948  76.9249524  66.8536414
  35.9636049  76.8971915  65.8891478  36.2211031  77.1119301  66.5976688
  30.4210425  78.3779080  46.8644398  30.4903245  77.5193618  47.0037398
  31.1998880  78.5950960  46.5363422  30.5463275  78.2831944  46.8361555
  34.8117912  80.8016781  51.0780891  34.4197704  80.4983496  50.3603757
  34.9670984  81.6385871  50.8885845  34.7771502  80.8800618  50.9437388
  22.2879092  70.7938795  51.0271774  22.6678057  71.2123340  50.3632041
  21.7134457  71.3752251  51.3340617  22.2590417  70.9416654  50.9748515
  35.5652332  69.4887098  60.5709977  34.7529014  69.1812988  60.6523150
  36.0242267  69.0086098  61.1352689  35.5132717  69.3723590  60.6664571
  34.9757587  77.3666770  51.0186922  34.6172242  77.5381413  51.7950954
  34.4896298  77.8279975  50.4614920  34.8516284  77.4605741  51.0512191
  32.7927973  60.9897968  54.6214013  31.9221531  60.9636689  54.5747322
  33.0468314  60.8175160  53.8039859  32.7021533  60.9608112  54.4934150
  29.7645952  73.0465935  43.5587156  30.0538477  73.8230818  43.8330730
  29.8517751  72.5354667  44.2601655  29.8200209  73.0857853  43.7029654
  32.6605840  70.8947169  65.3538680  33.1305471  71.5189286  65.7406554
  32.7067720  70.2264145  65.9131894  32.7373716  70.8881849  65.4938751
  29.8177113  63.0004197  56.0787483  29.3015602  62.3084388  56.2039062
  29.2571042  63.6674974  56.0250082  29.6583627  62.9967454  56.0893549
  31.8869347  63.5397157  57.9080336  31.5001100  63.5646188  58.6893866
  31.4002284  62.9738835  57.4554853  31.7581856  63.4592908  57.9568240
  36.1362326  78.2570666  61.9654123  36.7742047  77.7630861  61.6316579
  35.4936418  78.1848066  61.3806349  36.1356553  78.1729674  61.8296477
  37.8619326  70.1059812  56.5320038  37.4346934  70.0186160  55.7768138
  37.2245379  70.2137587  57.1174882  37.7048934  70.1092471  56.5065480
  31.5526489  60.4264142  60.1990596  32.1819607  60.9624442  59.9211666
  31.7212351  60.3341501  61.0504162  31.6704283  60.4925504  60.2839124
  31.3540403  65.2135337  62.4717007  32.1813833  64.9420486  62.5275622
  31.3748249  66.0096179  62.8280826  31.4793254  65.2915091  62.5332190
  36.1916583  78.9490474  58.6059479  36.9808961  78.5979539  58.7261561
  36.3660181  79.7626862  58.3436113  36.3336865  79.0176331  58.5847347
  25.9309893  72.3599200  55.6587268  25.0897900  72.2603074  55.8666162
  26.1399901  73.1294680  56.0101589  25.8374586  72.4591243  55.7414583
  23.4085460  69.9818737  53.4872019  23.0142158  70.0561748  52.7122128
  22.8525577  70.3676683  54.0380381  23.2688273  70.0500511  53.4539679
  35.0450407  62.9600031  53.1675898  35.2500000  62.8922338  54.0132895
  34.7176831  63.7658852  53.0997075  35.0265655  63.0685971  53.2835553
  29.7426558  70.2880599  54.9084866  29.4389696  69.7336587  55.5095273
  29.0405979  70.4672809  54.4212900  29.5942768  70.2325381  54.9254571
  28.7992655  67.5981119  49.4729567  29.0752390  66.8800031  49.0607135
  29.3991325  68.1966039  49.2650674  28.9285920  67.5801489  49.3810329
  27.8044909  77.5030320  59.6156963  27.6965264  77.5132382  60.4819021
  28.0140691  78.3285100  59.4261917  27.8195020  77.6271394  59.7161055
  38.2984095  63.5131795  52.6478663  37.6858408  64.0002197  53.0332395
  38.3948270  62.8375286  53.1916314  38.2221992  63.4850104  52.7857521
  32.3003176  65.2694636  47.7476163  32.7546922  65.4405196  48.4724007
  32.7743221  64.6562747  47.3473938  32.4371496  65.2045521  47.7949924
  25.8218701  74.7542962  57.0778901  25.2306634  75.3952460  57.0481916
  26.5839725  75.1780579  57.0510201  25.8466962  74.9118800  57.0694048
  26.2179324  65.9144960  57.7446919  26.6780806  65.9883889  58.4822042
  26.2635431  66.7126214  57.3946740  26.2929879  66.0439107  57.8019675
  27.8662674  66.5811655  62.3118946  27.4748239  65.9345002  62.7474724
  28.0348536  67.1723090  62.9313201  27.8333584  66.5725922  62.4681652
  41.9409123  74.5848732  58.0756179  41.9992246  75.0335380  58.8216156
  41.3075590  74.9947544  57.6386259  41.8560418  74.7122466  58.1208728
  35.5808217  80.2052274  54.5110925  35.3827906  80.6943088  53.8167137
  34.9595928  80.4093515  55.0895059  35.4595782  80.3068812  54.4934149
  29.6416196  71.9737170  48.8521170  30.3858241  72.3611447  49.0904120
  29.7876892  71.1294596  49.0161658  29.7726781  71.9067643  48.9115139
  31.5595771  63.7687429  53.8853031  30.7131816  63.9410237  53.7594381
  31.5566904  62.9636773  54.2218859  31.4342921  63.6748458  53.9164158
  32.6294072  67.5462644  54.7515089  32.1554026  67.0204406  55.2620400
  33.0012207  66.9992117  54.1829951  32.6143961  67.3878640  54.7430236
  23.0067102  69.5434150  60.1198635  23.8692715  69.4429860  60.0335965
  22.6758885  68.9628860  59.5584207  23.0852298  69.4425777  60.0244041
  38.8930802  72.6065019  56.1621870  38.6529025  71.7671434  56.1664296
  39.3722809  72.6865186  56.8862643  38.9282986  72.4946419  56.2696672
  34.5577571  68.4399198  47.8140843  34.0300590  68.5227942  47.1246552
  35.0173279  69.1817070  47.8105488  34.5479422  68.5619861  47.7115538
  40.8935989  69.3866477  54.1151129  40.6545759  69.3462311  53.2771913
  41.0569890  70.2337629  54.2416850  40.8826293  69.5058562  54.0104611
  37.4982019  73.7716426  60.0456174  38.2216218  73.3188952  59.8667194
  37.2331982  74.0521092  59.2628502  37.5663293  73.7467394  59.9034889
  26.3668888  68.3676599  56.7809053  25.7421958  68.3794991  56.1735006
  26.0314483  68.8436775  57.4300293  26.2254380  68.4395116  56.7865622
  26.5510636  66.7101718  42.8381738  26.2023441  67.3621443  43.3013287
  26.0707082  66.6958831  42.1105609  26.4280880  66.8044771  42.7992829
  23.0794563  76.4277059  58.2212817  22.5494488  75.7369498  58.2707792
  23.3519657  76.4187245  57.3925526  23.0419286  76.3244191  58.1060233
  34.1114654  77.0102762  46.9450500  34.8348853  77.4760875  46.8015073
  33.6715245  77.0776371  46.1948097  34.1530346  77.0886599  46.8135281
  33.2800809  73.8700304  58.1951189  32.6657802  73.3258354  58.4899824
  33.7968094  73.3564541  57.7157005  33.2656471  73.7136713  58.1675417
  32.5197106  74.9404574  55.9295488  32.0924714  74.3154293  55.4960923
  32.5122050  74.6579496  56.7554495  32.4556247  74.8057355  55.9875315
  25.6359633  69.9769747  58.9983922  25.7953120  69.2213071  59.4035643
  25.4552527  70.5260687  59.6524659  25.6324992  69.9463561  59.1546628
  33.5779936  62.1430983  59.5534711  33.0820497  62.3394657  58.8626278
  34.3348998  62.5423651  59.3823513  33.6166761  62.2308717  59.4254848
  30.8482816  65.8173329  56.1438022  30.8725303  65.2833441  55.4550802
  31.0994289  65.3090637  56.8063612  30.8892734  65.6634233  56.1402666
  18.3590405  73.1004824  55.5781166  18.2533855  73.0551668  54.7133250
  17.6090625  73.4458604  55.8595451  18.2326008  73.1445732  55.4918495
  27.1284138  64.5444147  55.5243766  27.1682510  65.0453353  56.2378473
  26.3033803  64.6354541  55.2549689  27.0123664  64.6325963  55.5894304
  29.3113751  74.1104887  63.6264060  28.4609381  74.2476601  63.7621705
  29.4741879  73.3768665  64.0711762  29.2097614  74.0218988  63.7119660
  28.5498501  71.0604657  57.8217665  27.7190431  71.2278475  57.6152913
  28.4950018  70.6840608  58.6066550  28.4187916  71.0294388  57.9066193
  26.3582285  64.5513550  63.4574076  26.9834988  64.0075682  63.7303508
  25.9032764  64.0708467  62.8881866  26.3830545  64.4003031  63.4135669
  26.9234545  69.3360248  48.3507783  27.0637506  69.8332713  49.0536424
  27.4217078  68.6346543  48.4921996  27.0175626  69.3062227  48.4759362
  26.9534768  70.2027359  45.6800359  27.5879847  70.7987784  45.6149821
  27.0360378  69.9030817  46.4946230  27.0591318  70.2468267  45.7903446
  39.9317333  72.7342837  58.5486724  40.5235174  73.3740087  58.5804922
  40.3676328  72.0365873  58.8378790  40.0835764  72.7261187  58.5967556
  28.5313750  66.1341335  45.6545801  28.8529591  65.6544417  45.0005064
  28.7940694  66.9440981  45.4636613  28.6179776  66.1831233  45.5301293
  31.7610723  77.1560209  59.1744618  31.2535814  77.7096056  59.6185248
  31.4637369  77.2168499  58.3563392  31.6415608  77.2466520  59.1193074
  33.9272905  65.5213529  58.0169280  34.3527977  65.0686055  57.4052807
  33.3129898  64.9673599  58.2934068  33.9001551  65.3727505  57.9674306
  23.4587755  72.3995200  48.9489905  23.9679985  72.9959708  49.3301211
  23.9322028  72.1321174  48.2666325  23.6031131  72.4481015  48.9044428
  34.3718503  81.0723467  47.1048561  33.6547813  80.8984329  46.6395798
  35.0225241  80.8376039  46.5724047  34.3620354  81.0119259  46.9577779
  32.3667128  61.9928628  51.4259857  31.7235446  61.8426275  51.9944996
  32.0266535  61.7470974  50.6608962  32.2212206  61.9340751  51.3962873
  36.9566475  69.9488055  50.8489866  36.2857665  70.4917758  50.7202932
  37.6506225  70.4182911  50.6071561  36.9595342  70.0986327  50.7945394
  37.1194602  66.4043939  53.7580239  37.4722212  65.9773662  54.4326038
  36.2609404  66.3194782  53.8881316  37.0444047  66.3288680  53.8775250
  25.8178287  69.0351459  51.8163086  25.0990276  69.4515591  52.0835949
  26.1890649  69.6005697  51.2654724  25.7670219  69.1800740  51.7745893
  35.1177868  69.6679308  57.7065082  35.0975795  69.4862603  58.5599860
  35.1657069  70.5391326  57.6824665  35.1212509  69.7695846  57.8288376
  33.0624198  76.2566499  63.6313558  33.0220053  75.6116176  63.0458714
  33.8747516  76.2003117  63.9438970  33.1767351  76.1525466  63.5910507
  33.0196959  81.4675311  54.2862326  32.6213243  81.5777581  53.5183146
  32.4048179  81.6757377  54.8688885  32.8695849  81.5148879  54.2593625
  31.5924861  68.0749459  47.1536465  30.9989701  68.3966455  46.6021032
  31.6300139  67.2290554  46.9457571  31.5099251  67.9973787  47.0419237
  38.5518662  61.5262351  54.6864552  38.0449527  60.8191490  54.6185729
  39.3486096  61.1955540  54.8165628  38.5945901  61.3735502  54.6963547
  34.4682678  68.0328963  50.5838216  34.2396371  68.0561664  49.7416574
  34.7280754  67.2086430  50.7033226  34.4728866  67.9145043  50.4763413
  28.7501907  69.8863436  60.1863316  28.2380810  69.2784619  60.5448347
  28.5781403  70.6020029  60.6537292  28.6491544  69.9026735  60.3079539
  23.5967621  68.3301011  62.8365678  23.4270211  68.9902386  62.2913884
  23.1533571  68.5407573  63.5578167  23.5066955  68.4586993  62.8627307
  27.5227441  66.5705509  51.8792411  27.9984807  66.9322589  51.2442592
  27.0216040  67.2261977  52.1592554  27.5192800  66.7199698  51.8269152
  40.7538802  76.0427277  47.6705416  41.1372408  76.7918634  47.9003513
  39.9582915  76.2893097  47.4117405  40.6932584  76.1896971  47.6662990
  32.6270977  67.8087681  62.6265571  33.1842407  67.5801490  61.9944037
  32.3032042  68.5693346  62.3500784  32.6617387  67.8871517  62.4922068
  20.4969686  71.2347877  58.0954167  19.9496405  70.5648522  58.2135036
  21.2862064  70.8677725  58.1597635  20.5321869  71.0812863  58.1222868
  30.3454094  70.8955334  63.5917578  31.0965421  71.2107011  63.9057133
  30.5376671  70.6934505  62.7651500  30.4845508  70.9122716  63.5160974
  29.5654094  68.7146709  45.2465795  29.9453059  68.7326338  44.4616910
  28.8246690  69.1600698  45.1256642  29.5122931  68.7828484  45.1129363
  37.1939384  67.0228900  50.8341374  37.1933611  66.8677557  51.6925650
  36.9895564  67.8691887  50.7782759  37.1639162  67.1249521  50.9529313
  19.2556655  70.4468685  55.2500190  19.0778416  69.9945294  55.9755106
  18.9675677  71.2494846  55.4338668  19.1869608  70.4991243  55.3843693
  34.9180236  71.7026402  54.4877581  35.4133902  70.9849397  54.4481601
  34.1080012  71.3997200  54.3732068  34.8724130  71.5524048  54.4651307
  30.3638848  75.5524215  46.6374585  29.5550171  75.2290889  46.5907895
  30.8713757  74.8457437  46.5702834  30.3188515  75.4005532  46.6204880
  20.9929125  72.9796408  52.3621949  20.1274645  72.9682099  52.2504721
  21.0927941  72.7926631  53.2093089  20.8803292  72.9502470  52.4710894
  36.9832055  74.4530090  57.1754709  37.4087127  73.9304511  56.6225135
  36.6188975  75.0510927  56.6543332  36.9918658  74.4640317  57.0163719
  33.5710655  78.1664354  53.5055867  34.0421833  78.8804616  53.6745852
  33.9070833  77.5663104  54.0415736  33.6905770  78.1835818  53.6088243
  35.6587639  79.7765667  65.6847939  35.7684605  78.9874228  66.0404686
  35.9878536  79.6871603  64.8822277  35.7240045  79.6471520  65.6190330
  30.4880150  62.9391824  60.4613962  30.6208055  62.1422818  60.7894937
  30.8725302  63.4658227  61.0412237  30.5636478  62.8991741  60.5957465
  34.2084601  77.9582288  60.2683560  33.6605547  77.3340172  60.0003625
  34.6697630  78.1476560  59.5527639  34.1951810  77.8941338  60.1233991
  33.5612505  59.8622151  57.0595055  32.7558468  59.7519880  57.3762893
  33.4319240  59.9634606  56.2024921  33.4232638  59.8605821  56.9803095
  37.0178465  66.0267642  57.6534752  36.4341454  66.5276849  57.2412319
  37.3382759  65.5197199  57.0199075  36.9791641  66.0259477  57.4993259
  29.5573264  64.9408237  47.9293427  30.3788959  65.1106550  47.6875122
  29.0942915  65.0955498  47.2059724  29.6104427  64.9889970  47.7865071
  28.1468596  62.9351000  58.7091855  28.6913009  62.5942126  59.2996197
  28.2005532  63.7936461  58.8513140  28.2357716  63.0106259  58.8173729
  23.9599155  76.6967416  55.5830663  24.5644012  76.6563250  54.9544484
  23.7526468  77.5438568  55.6134719  24.0188052  76.8155418  55.4946780
  33.7742927  78.9633361  56.7992901  34.5941301  78.8196327  57.0609196
  33.4937005  79.5879560  57.3409339  33.8539671  79.0343713  56.9180840
  19.1950437  75.6802033  55.4529587  19.0974715  74.8698305  55.7619643
  19.9779307  75.6593826  55.0675855  19.2966574  75.5569123  55.4416449
  50.2456578  86.6198212  49.7635777  50.2150582  87.4742849  49.9354047
  50.8437926  86.3193505  50.3221921  50.3293736  86.7014709  49.8710579
  42.0005186  85.1860532  49.4057816  42.6985350  85.3648660  49.8979279
  42.3157518  84.6630872  48.7828205  42.1500523  85.1354305  49.3859826
  40.1732049  80.5552929  53.4879091  39.8435379  81.0064073  52.8182789
  39.4977051  80.4769092  54.0352097  40.0242486  80.6104064  53.4702314
  47.3808457  76.5438452  51.7328701  47.0661898  77.2341931  52.1649124
  46.8635399  76.4883234  51.0314202  47.2572928  76.6373341  51.6925650
  38.3788003  78.6165217  48.9702038  39.1333971  78.9843535  48.7319089
  38.2015538  78.9904772  49.7381218  38.4642482  78.7263405  49.0486927
  51.6722902  84.7659658  57.0149578  50.8351323  84.8361845  57.2497172
  51.6411133  84.7684153  56.1423880  51.5441185  84.7769885  56.9209126
  36.7345068  81.0235536  45.6680151  36.5520641  81.2407417  44.8421144
  37.5970681  81.1374549  45.7238766  36.8349658  81.0725434  45.5534638
  42.4144787  78.0261947  48.7029175  43.1430948  77.8477902  48.2567332
  42.5039680  78.8680027  48.9136353  42.5351449  78.1245826  48.6682693
  49.3530742  79.8302440  55.5993300  49.9956650  79.9000544  56.1855215
  49.6053763  79.1631662  55.0972842  49.4852874  79.7428788  55.6120579
  37.1247954  83.0403003  60.2117874  36.4319751  82.5699983  60.4578606
  37.7408282  82.8141307  60.7859581  37.1132484  82.9370135  60.3327027
  44.5882024  80.9239411  53.3104253  43.8838351  80.4348597  53.4688172
  44.6366999  80.9361886  52.4392698  44.4912076  80.8529059  53.2043593
  51.7912244  84.6047077  51.3305264  51.5348809  83.7927018  51.1403146
  52.6341558  84.6124644  51.1035451  51.8778270  84.4859074  51.2690081
  45.9715337  78.5446701  56.0681418  46.3525848  77.8624872  56.4549292
  45.1678621  78.2556303  55.8857082  45.9091798  78.4013749  56.0985474
  39.9307177  81.0500899  65.9344026  39.6160618  81.8200462  65.6713589
  39.6097110  80.4871155  65.3496253  39.8366096  81.0811168  65.8085376
  56.1975616  88.1834122  56.5560455  56.1300117  88.2030081  55.6863042
  56.1831279  89.0264450  56.7816126  56.1854373  88.3107857  56.4612932
  37.4839074  79.4391421  51.5490223  36.6161499  79.5114020  51.6147832
  37.7714278  80.2413500  51.7378198  37.3978822  79.5685568  51.5864989
  46.6071963  79.5869280  59.8801544  47.3525555  79.3979090  59.4664970
  46.1909267  80.1127518  59.3215401  46.6556937  79.6371425  59.7366118
  53.9834234  86.9578509  54.8307049  54.5342155  86.3246578  55.0704141
  53.9678349  87.4893901  55.5222554  54.0619430  86.9427457  54.9685908
  47.6862640  85.1974842  53.9411646  47.3427406  84.4765177  54.2918895
  47.7855682  84.9888693  53.0990004  47.6504683  85.0599045  53.8683326
  39.5623682  83.6498150  64.6729241  38.7523458  83.9555930  64.5619083
  40.0398369  84.3703733  64.7881825  39.5127161  83.8012751  64.6736312
  46.2053605  83.1166427  55.8171189  45.3664706  83.1427706  55.5809452
  46.2757972  83.7637162  56.3976535  46.0921999  83.2162553  55.8680305
  44.6522883  80.0151804  50.5498804  45.3549236  79.8159552  50.0718763
  44.3867072  79.2427746  50.8567648  44.7169516  79.8714770  50.5244246
  39.4151440  81.2787089  59.6029685  39.2234637  81.2942224  60.4529109
  40.2650036  81.4750763  59.5796340  39.5127162  81.3101440  59.7252980
  43.9536945  85.6445161  51.7257990  43.7071659  85.5640912  52.5594779
  44.2822068  84.8598629  51.5320517  43.9658189  85.5171426  51.8205513
  42.3255667  81.4742599  59.8101508  42.7828281  82.2066573  59.9374300
  42.4011996  81.0509064  60.5688764  42.4046637  81.5199837  59.9402585
  34.5688658  81.7208418  60.8990952  34.0330847  81.1088776  61.2151719
  34.6306423  82.2956554  61.5524618  34.4984291  81.7155346  61.0426379
  46.7982993  74.6532474  53.6795351  46.9166561  75.1108937  52.9462654
  46.6245168  73.8477735  53.3931569  46.7902164  74.6026246  53.5296285
  40.2038045  83.4644702  56.6543332  39.4134119  83.2836163  56.9760668
  40.5998668  82.6871655  56.6373627  40.1454921  83.3232163  56.6995881
  44.3745828  83.3983340  59.6326670  44.5887797  82.7594255  59.0790024
  43.7579727  83.8429164  59.2034532  44.3151157  83.3693484  59.4877101
  46.5384916  85.0072406  60.5709977  45.7261598  84.6998296  60.6523150
  46.9974850  84.5271406  61.1352689  46.4865301  84.8908898  60.6664571
  43.7660556  76.5083276  54.6214013  42.8954114  76.4821997  54.5747322
  44.0200898  76.3360468  53.8039859  43.6754117  76.4793420  54.4934150
  40.7909697  78.5189505  56.0787483  40.2748186  77.8269696  56.2039062
  40.2303626  79.1860282  56.0250082  40.6316210  78.5152762  56.0893549
  42.8601930  79.0582465  57.9080336  42.4733684  79.0831496  58.6893866
  42.3734868  78.4924143  57.4554853  42.7314439  78.9778215  57.9568240
  48.8351910  85.6245120  56.5320038  48.4079518  85.5371468  55.7768138
  48.1977963  85.7322895  57.1174882  48.6781517  85.6277779  56.5065480
  42.5259072  75.9449450  60.1990596  43.1552190  76.4809750  59.9211666
  42.6944935  75.8526809  61.0504162  42.6436867  76.0110812  60.2839124
  42.3272987  80.7320645  62.4717007  43.1546416  80.4605794  62.5275622
  42.3480833  81.5281486  62.8280826  42.4525837  80.8100399  62.5332190
  46.0182991  78.4785339  53.1675898  46.2232584  78.4107646  54.0132895
  45.6909415  79.2844160  53.0997075  45.9998238  78.5871279  53.2835553
  39.7725239  83.1166427  49.4729567  40.0484973  82.3985339  49.0607135
  40.3723908  83.7151346  49.2650674  39.9018503  83.0986797  49.3810329
  49.2716678  79.0317103  52.6478663  48.6590992  79.5187505  53.0332395
  49.3680853  78.3560594  53.1916314  49.1954576  79.0035412  52.7857521
  43.2735759  80.7879944  47.7476163  43.7279506  80.9590504  48.4724007
  43.7475805  80.1748055  47.3473938  43.4104079  80.7230829  47.7949924
  37.1911908  81.4330268  57.7446919  37.6513389  81.5069197  58.4822042
  37.2368014  82.2311522  57.3946740  37.2662463  81.5624415  57.8019675
  38.8395257  82.0996962  62.3118946  38.4480822  81.4530310  62.7474724
  39.0081120  82.6908398  62.9313201  38.8066168  82.0911230  62.4681652
  42.5328355  79.2872737  53.8853031  41.6864400  79.4595545  53.7594381
  42.5299487  78.4822081  54.2218859  42.4075505  79.1933766  53.9164158
  43.6026655  83.0647952  54.7515089  43.1286609  82.5389714  55.2620400
  43.9744791  82.5177424  54.1829951  43.5876544  82.9063948  54.7430236
  45.5310155  83.9584506  47.8140843  45.0033173  84.0413250  47.1246552
  45.9905863  84.7002378  47.8105488  45.5212005  84.0805169  47.7115538
  51.8668573  84.9051784  54.1151129  51.6278343  84.8647619  53.2771913
  52.0302474  85.7522937  54.2416850  51.8558876  85.0243869  54.0104611
  37.5243220  82.2287026  42.8381738  37.1756024  82.8806751  43.3013287
  37.0439666  82.2144139  42.1105609  37.4013464  82.3230079  42.7992829
  44.5512520  77.6616291  59.5534711  44.0553081  77.8579965  58.8626278
  45.3081582  78.0608959  59.3823513  44.5899344  77.7494024  59.4254848
  41.8215399  81.3358637  56.1438022  41.8457886  80.8018749  55.4550802
  42.0726873  80.8275945  56.8063612  41.8625318  81.1819541  56.1402666
  38.1016721  80.0629455  55.5243766  38.1415093  80.5638661  56.2378473
  37.2766386  80.1539849  55.2549689  37.9856247  80.1511271  55.5894304
  37.3314868  80.0698858  63.4574076  37.9567572  79.5260990  63.7303508
  36.8765348  79.5893775  62.8881866  37.3563129  79.9188339  63.4135669
  39.5046334  81.6526643  45.6545801  39.8262175  81.1729725  45.0005064
  39.7673278  82.4626289  45.4636613  39.5912359  81.7016541  45.5301293
  44.9005489  81.0398837  58.0169280  45.3260560  80.5871363  57.4052807
  44.2862482  80.4858907  58.2934068  44.8734134  80.8912813  57.9674306
  43.3399712  77.5113936  51.4259857  42.6968030  77.3611583  51.9944996
  42.9999119  77.2656282  50.6608962  43.1944789  77.4526059  51.3962873
  47.9299058  85.4673363  50.8489866  47.2590248  86.0103065  50.7202932
  48.6238808  85.9368219  50.6071561  47.9327926  85.6171634  50.7945394
  48.0927186  81.9229247  53.7580239  48.4454796  81.4958970  54.4326038
  47.2341987  81.8380090  53.8881316  48.0176630  81.8473987  53.8775250
  46.0910452  85.1864615  57.7065082  46.0708379  85.0047911  58.5599860
  46.1389652  86.0576634  57.6824665  46.0945093  85.2881154  57.8288376
  42.5657445  83.5934766  47.1536465  41.9722284  83.9151763  46.6021032
  42.6032723  82.7475862  46.9457571  42.4831834  83.5159095  47.0419237
  49.5251246  77.0447659  54.6864552  49.0182110  76.3376798  54.6185729
  50.3218680  76.7140848  54.8165628  49.5678485  76.8920810  54.6963547
  45.4415262  83.5514271  50.5838216  45.2128955  83.5746972  49.7416574
  45.7013338  82.7271738  50.7033226  45.4461450  83.4330351  50.4763413
  38.4960024  82.0890817  51.8792411  38.9717390  82.4507897  51.2442592
  37.9948624  82.7447285  52.1592554  38.4925383  82.2385006  51.8269152
  43.6003560  83.3272989  62.6265571  44.1574991  83.0986798  61.9944037
  43.2764625  84.0878654  62.3500784  43.6349971  83.4056825  62.4922068
  48.1671968  82.5414208  50.8341374  48.1666194  82.3862865  51.6925650
  47.9628148  83.3877195  50.7782759  48.1371746  82.6434829  50.9529313
  41.4612733  78.4577132  60.4613962  41.5940639  77.6608126  60.7894937
  41.8457886  78.9843535  61.0412237  41.5369062  78.4177049  60.5957465
  44.5345088  75.3807459  57.0595055  43.7291052  75.2705188  57.3762893
  44.4051824  75.4819914  56.2024921  44.3965221  75.3791129  56.9803095
  47.9911049  81.5452950  57.6534752  47.4074038  82.0462157  57.2412319
  48.3115343  81.0382507  57.0199075  47.9524224  81.5444785  57.4993259
  40.5305848  80.4593545  47.9293427  41.3521542  80.6291858  47.6875122
  40.0675499  80.6140806  47.2059724  40.5837010  80.5075278  47.7865071
  39.1201180  78.4536307  58.7091855  39.6645593  78.1127434  59.2996197
  39.1738116  79.3121769  58.8513140  39.2090299  78.5291567  58.8173729
  17.0209651  17.0020420  36.6975824  16.9903655  17.8565057  36.8694093
  17.6191000  16.7015712  37.2561968  17.1046809  17.0836916  36.8050626
  10.2209336  16.0896071  41.4528754   9.3647231  16.2504569  41.5037871
  10.2676989  15.2188135  41.4733815  10.1008447  15.9846873  41.4634820
   4.6050475  25.6258789  37.2165986   3.8533375  25.2474327  36.9882031
   5.0536487  25.6577222  36.4684796   4.5600142  25.5744396  37.0723488
  13.5303052  22.3582596  51.0589210  14.2369819  21.8634627  51.1876145
  13.7190988  22.7991678  50.3291869  13.6630958  22.3500947  50.9698256
  10.0575435  26.0484158  32.6451533   9.7226804  26.7261080  32.2095755
  10.5702306  25.6589469  32.0568405  10.0841016  26.0908736  32.4938325
   9.5979727  27.9998427  38.5862645   9.9819106  28.5685326  38.0467420
   9.5338868  27.2747937  38.1068461   9.6453154  27.9773890  38.4356507
  13.0661157  18.1488115  44.0960406  13.6117117  18.8273201  44.1554376
  13.0078033  18.0075576  43.2361988  13.1377071  18.2280116  43.9772467
   6.1835232  25.6377181  39.4828758   6.2845594  24.8277535  39.7925886
   5.5876977  25.5434127  38.8528437   6.1107770  25.5042209  39.4354997
  14.8426225  19.5772722  34.9694134  14.7265751  20.3280408  35.3986272
  15.6382112  19.3196675  35.2190221  14.9430815  19.6507569  35.0698225
   6.0235971  30.5554770  40.8843614   6.6673427  30.9967934  41.2739773
   6.3492227  29.7508196  40.7973873   6.1667800  30.5019965  40.9289092
   1.6790363  13.8283198  42.0065400   1.0595395  13.2375845  41.8375415
   1.5774227  14.4194633  41.3729723   1.5728039  13.8287281  41.8870389
   6.7256551  23.5666745  36.2563476   7.0472392  24.1071952  35.6524784
   7.3728647  22.9963516  36.3885766   6.8682606  23.5625920  36.1870512
   8.7758259  15.5682740  36.3397863   9.4738424  15.7470867  36.8319326
   9.0910591  15.0453079  35.7168252   8.9253596  15.5176512  36.3199873
   1.4059496  17.3735480  44.2508969   1.2818193  17.9597925  44.8858788
   2.0577781  16.8795675  44.5521244   1.4833146  17.3874284  44.3894898
   8.9646194  21.9553185  36.3277654   9.4039830  21.3470285  36.7732427
   8.8150857  21.5760558  35.5563119   9.0067660  21.8091656  36.2796822
   6.4317837  20.5497197  43.5296480   7.0766840  20.0569640  43.2107428
   6.6719614  20.6921983  44.3562558   6.5628422  20.4974639  43.6046013
   8.9703929  23.3952102  43.1803372   9.2527172  22.6003508  42.9590128
   9.6990089  23.8732690  43.2008433   9.1193492  23.3486699  43.1506388
   6.9485123  10.9375136  40.4219138   6.6188453  11.3886280  39.7522836
   6.2730124  10.8591300  40.9692144   6.7995559  10.9926272  40.4042361
  12.5655531  20.3080366  33.2808424  12.4806826  21.1641333  33.4257992
  13.0539914  20.0324690  33.9490583  12.6244428  20.3937688  33.4010505
  14.1561530   6.9260659  38.6668748  13.8414971   7.6164138  39.0989171
  13.6388472   6.8705442  37.9654249  14.0326001   7.0195548  38.6265697
  13.4973964  16.9265160  34.7806159  12.9685436  17.1424794  35.4403465
  14.0198984  17.6201299  34.7007128  13.4962417  17.0608297  34.8661758
  18.9522017  22.5011465  40.1539203  18.1219720  22.7122108  40.3172620
  18.9031269  21.6748519  39.8781487  18.8228752  22.4101071  40.1376569
   5.3873572  20.8228377  33.5813627   4.8030787  21.3278408  33.9879491
   4.9843667  20.5970764  32.8410219   5.2412876  20.8636625  33.5318652
   7.0131755  25.3315319  42.9887113   6.4958696  24.9722734  42.3848421
   7.7106146  24.8077493  42.9993179   7.0397336  25.2013007  42.9017371
  10.6695347  25.7810133  48.9503286  10.7578692  25.5936273  49.7981496
  11.0985059  25.1347563  48.5508133  10.7457449  25.6573141  49.0175037
   8.2365806  25.0641293  47.9320948   7.6736641  24.6513903  48.4560609
   8.9986830  24.9894199  48.3514091   8.2660255  24.9918693  48.0713948
   9.8450786  17.0694029  32.0582547  10.0846790  17.2772013  31.2457890
  10.1666627  16.2651538  32.1671492   9.9287944  16.9808130  31.9543100
   3.7961798  27.0539314  40.5357578   4.4982377  26.5391303  40.5930335
   3.7159281  27.3813465  41.3404453   3.8885558  27.0253540  40.6630370
  18.4475975  15.1481865  43.9489625  17.6104396  15.2184052  44.1837219
  18.4164206  15.1506360  43.0763927  18.3194258  15.1592092  43.8549173
   4.8440704  17.2914901  49.6637993   5.0161208  17.1820796  50.5123275
   5.3810062  17.9369306  49.4269186   4.9485708  17.3706903  49.7543090
   3.5098141  11.4057744  32.6020198   3.3273714  11.6229625  31.7761191
   4.3723754  11.5196757  32.6578813   3.6102731  11.4547642  32.4874685
   3.1212573  23.2445666  40.0443186   3.9601473  23.4768599  40.0916948
   3.1524342  22.3749977  39.9750222   3.2494291  23.1502613  40.0407831
   3.7465276  23.6646541  44.3456492   4.2863501  23.5217672  45.0159864
   3.0635223  24.0643292  44.7140518   3.7257430  23.7026212  44.4990913
   9.1897860   8.4084155  35.6369222   9.9184021   8.2300109  35.1907378
   9.2792753   9.2502234  35.8476400   9.3104522   8.5068033  35.6022740
  13.1706161  19.3437542  39.5401516  13.9263676  19.7769056  39.5790425
  13.2768486  18.6942312  40.1136152  13.2976332  19.3115026  39.6299542
  16.2086332  23.1710819  40.2903919  15.7721564  23.1747562  41.0462890
  15.8749248  23.8516318  39.8583496  16.0948952  23.2723275  40.3384752
  10.7815406  25.2119152  51.6147069  11.5655822  25.3250000  51.9802811
  10.5812000  24.3860289  51.8105755  10.8681431  25.1065871  51.6981455
  16.1283815  10.2124647  42.5333347  16.7709724  10.2822752  43.1195262
  16.3806836   9.5453870  42.0312889  16.2605947  10.1250996  42.5460626
   3.0560168  14.6831916  31.1142671   2.3418345  14.3970096  31.5265104
   3.5404137  15.0228542  31.7549059   3.0219532  14.6913566  31.2698306
   3.9001028  13.4225210  47.1457921   3.2072824  12.9522190  47.3918652
   4.5161355  13.1963515  47.7199628   3.8885558  13.3192342  47.2667074
  10.9385799  27.1229254  45.2613525  10.1401045  26.8828754  45.5187394
  11.3871811  27.1743647  46.0080573  10.8860410  27.0951645  45.4098449
  19.3430678  19.8891739  39.1823556  20.0047113  19.3282408  39.0819465
  18.7022090  19.3943770  39.5076247  19.3459546  19.7328148  39.2155896
  10.2307486  23.1861870  31.4904480  10.6458635  22.8546894  30.7988975
   9.3999416  22.9530773  31.3624616  10.1695495  23.1033126  31.3695327
  15.6295509  20.9057121  38.9235545  15.8651098  21.0502320  38.0962396
  15.7785073  21.6699529  39.3167059  15.6861312  21.0396176  38.8599149
   2.6241587  17.3890614  48.2884766   3.3481559  17.3743645  48.7749661
   2.7257723  18.0985970  47.7906734   2.7459796  17.4915318  48.2863553
  17.4585966  19.7458787  36.7605149  17.7894183  20.2786428  36.1545244
  18.0319054  19.7997675  37.4167100  17.5919645  19.8328356  36.7682931
   9.9986536  20.8689699  53.1533713   9.2059517  21.1833211  53.3386333
  10.1135463  21.0841167  52.3154498   9.8981947  20.9473536  53.0572048
  12.6717855  17.5923690  37.4428729  12.7664709  18.3312984  37.8968354
  12.0476699  17.1641166  37.8763293  12.5926885  17.6385011  37.5736876
  10.9270329  20.7709903  48.0919010  11.5009191  20.1337147  48.2467574
  10.8485133  20.7713985  47.2228667  11.0003564  20.6775014  47.9865421
  12.9240876  19.4372430  30.6765681  12.8421039  19.5074617  31.5420668
  13.5620597  20.0002174  30.4849422  13.0060714  19.5311401  30.7755630
   6.2834047  19.2033168  40.1440207   6.0253292  18.3704903  40.1171507
   6.3382530  19.4290781  39.3032708   6.2533825  19.1130939  40.0160344
  11.3635098  11.3061619  40.2444300  10.6591424  10.8170804  40.4028219
  11.4120072  11.3184093  39.3732744  11.2665149  11.2351266  40.1383640
   5.2568760  16.7570930  40.6305102   4.6818351  16.9163099  41.2669063
   4.8804436  16.1206339  40.1673553   5.1171572  16.6868743  40.6559660
   8.9242048  15.2294280  45.4897480   8.5356481  14.8048497  44.8349672
   8.2596747  15.4776429  45.9974507   8.7688976  15.2033001  45.4685348
  18.5665317  14.9869284  38.2645310  18.3101882  14.1749226  38.0743193
  19.4094631  14.9946851  38.0375498  18.6531343  14.8681282  38.2030128
  12.7468410   8.9268908  43.0021465  13.1278922   8.2447079  43.3889339
  11.9431694   8.6378510  42.8197129  12.6844872   8.7835957  43.0325521
  10.0280987  19.4592884  33.6874287  10.8421625  19.7507777  33.5757059
   9.9640128  18.8052747  33.1132580  10.1383726  19.4058079  33.5863125
  16.2490477  22.1418880  48.1003863  16.0129114  21.3106945  47.9815924
  16.8933706  22.0904487  48.6858707  16.3085147  22.0116568  48.1689757
   5.8988895  22.9314402  38.8146600   6.5362842  22.6926149  39.3598393
   6.3243966  23.1351561  38.0799760   6.0565061  22.9265412  38.7863757
   0.5901537  25.1702738  42.6980903   0.6305682  25.4417589  41.8700683
   1.1496061  25.6944646  43.1138691   0.6784883  25.2878493  42.6372791
   6.5391710  18.1516691  33.1521489   6.9236863  17.9324398  33.9038034
   6.2903330  18.9779637  33.2822565   6.5593782  18.2414838  33.2822565
   6.7060250  11.4323107  52.8684073   6.3913691  12.2022669  52.6053636
   6.3850183  10.8693363  52.2836300   6.6119169  11.4633375  52.7425423
  17.2726897  21.9263329  44.1632158  16.9672714  22.6591386  44.5245473
  16.5533113  21.5201259  43.8824944  17.1214240  21.9745062  44.1745295
   8.2810367  23.4086824  40.4940386   8.3549375  23.2461996  41.3482236
   9.0979873  23.5977014  40.2500867   8.4126725  23.4123567  40.5838411
  22.9728689  18.5656330  43.4900502  22.9053190  18.5852289  42.6203088
  22.9584352  19.4086657  43.7156172  22.9607446  18.6930064  43.3952979
   2.0416123  23.7544687  37.5234829   1.2154241  24.0006424  37.3969108
   2.1028115  23.6756768  38.3896887   1.9290290  23.7789636  37.6323774
  13.3825036   9.9691487  46.8141591  14.1278628   9.7801298  46.4005017
  12.9662341  10.4949725  46.2555448  13.4310010  10.0193633  46.6706164
   6.8214952  26.3721567  35.2253859   7.1113251  25.9810549  34.5013086
   7.5518433  26.5538272  35.6659134   6.9721837  26.3415381  35.1836666
  20.7587307  17.3400716  41.7647096  21.3095228  16.7068785  42.0044188
  20.7431422  17.8716109  42.4562600  20.8372503  17.3249664  41.9025954
   7.4109698  21.1739313  46.3106990   6.9121391  21.8855081  46.3891878
   8.2209922  21.4939980  46.2725152   7.4565804  21.3266162  46.3163558
   4.7620868  28.3488950  38.2914009   4.5421163  28.0586304  39.0840676
   4.5415390  27.6903905  37.7631921   4.6968462  28.2088658  38.3302918
   3.6737815  20.4362266  40.5569711   3.3851064  19.8099737  41.0915438
   4.5421163  20.3782554  40.6234391   3.7598067  20.3349810  40.6460665
  14.4615713  15.5797050  40.8751692  14.1180479  14.8587385  41.2258942
  14.5608756  15.3710901  40.0330051  14.4257756  15.4421253  40.8023372
   6.9288824  29.7218340  37.0744701   7.5812882  29.1894782  37.3035727
   6.2314432  29.3686992  37.4612575   6.9219542  29.5907863  37.1656869
   3.8770089  22.0757517  36.4812076   4.6316057  22.4570556  36.6947538
   3.2840701  22.5268661  36.9358772   3.9006802  22.1986345  36.5794954
  14.9228742  22.0422754  36.4175681  15.4886775  22.7015964  36.3334223
  14.2756646  22.3872452  36.8892083  14.9107499  22.1904695  36.4748437
   6.3376756  14.0320358  51.6069288   5.5276531  14.3378137  51.4959130
   6.8151442  14.7525940  51.7221872   6.2880234  14.1834959  51.6076359
   5.1968315  23.2466079  41.8552191   4.6749069  23.3866370  42.5404056
   5.5842336  22.4876743  42.0454308   5.1772016  23.1551602  41.9853267
   2.1859499  13.2971887  35.9247146   1.8984295  12.9273158  35.1879093
   2.8729967  13.7666743  35.6630851   2.2448397  13.3118857  35.7762221
  11.3935320  24.9861538  35.8412760  11.1521996  24.2529399  35.4339825
  11.5736653  25.5348395  35.1879093  11.3842944  24.9583929  35.6842983
   6.6234641  20.2770098  37.2533682   6.4277423  20.8844832  36.6593985
   6.8468986  19.5838042  36.7725356   6.6269282  20.2647623  37.0949763
   5.0213171  17.1624836  37.3714550   5.7435823  17.3265994  36.9118356
   4.5421164  17.8834500  37.2653890   5.0576902  17.2923065  37.2880164
  12.9806678  13.4988634  42.7511235  12.1417779  13.5249913  42.5149499
  13.0511046  14.1459370  43.3316582  12.8675072  13.5984760  42.8020352
   2.6720788  19.5682908  46.4768690   3.1841884  19.8467161  45.8277450
   2.3857130  20.3072202  46.8431503   2.7055651  19.7185262  46.4358568
  11.4275957  10.3974011  37.4838851  12.1302310  10.1981760  37.0058809
  11.1620145   9.6249954  37.7907695  11.4922589  10.2536977  37.4584293
  16.8564202  18.7056621  40.0372477  16.7698177  18.8612047  40.8907256
  16.4014682  19.3494697  39.6631882  16.7767459  18.8232376  40.1079584
   6.1904513  11.6609297  46.5369732   5.9987710  11.6764431  47.3869155
   7.0403109  11.8572971  46.5136387   6.2880235  11.6923648  46.6593027
  10.7290018  16.0267368  38.6598037  10.4824733  15.9463119  39.4934826
  11.0575141  15.2420836  38.4660564  10.7411262  15.8993634  38.7545560
  14.6238067  22.7350728  42.4484818  14.4852426  23.4331773  42.9533560
  13.8438065  22.5799384  42.0921000  14.4881294  22.8150894  42.4711092
  12.9616152  19.0347103  48.7007200  12.9564191  18.1626919  48.7049626
  13.6677146  19.2335272  48.2276655  13.0661156  18.9350977  48.6314235
   6.6887046  18.7624087  48.0721020   6.8330421  19.3425295  47.4364130
   7.0362694  19.1400384  48.7770874   6.7614507  18.9044791  48.0820015
   8.8606963  17.9614255  45.8546151   8.1130277  18.1545270  45.4494429
   9.0148488  17.1359475  45.6170273   8.7729391  17.8679367  45.7591557
   5.7614801  26.9526859  44.9382046   5.9104364  26.3929775  44.2855451
   6.5414803  27.0318860  45.3214565   5.8988894  26.8812424  44.8978996
  16.1191440  22.0928981  33.2101317  15.7398249  21.3066119  33.2030606
  15.4557685  22.6415838  33.0672961  15.9649915  22.0573805  33.1882114
   8.2868101  27.1241502  46.2166537   8.2111772  26.4550312  46.7717326
   8.2157960  27.8259290  46.7307204   8.2648708  27.1286409  46.3743385
   9.1008740  11.8564806  46.7441555   9.5581354  12.5888780  46.8714347
   9.1765069  11.4331271  47.5028811   9.1799710  11.9022044  46.8742631
  13.5736066   5.0354681  40.6135398  13.6919634   5.4931144  39.8802701
  13.3998242   4.2299942  40.3271616  13.5655237   4.9848453  40.4636332
   8.9438348  25.6442500  37.0490143   9.7088239  25.3752144  36.7272808
   8.8416438  25.1592511  37.7660206   9.0419844  25.5332065  37.1069971
   6.9791118  13.8466910  43.5883379   6.1887193  13.6658370  43.9100715
   7.3751741  13.0693862  43.5713673   6.9207994  13.7054371  43.6335927
  11.4657009  22.6754684  29.0290093  12.2329994  22.7354809  28.6195944
  11.0188318  22.1035126  28.5446411  11.5130436  22.5991260  28.8967803
  12.3634804  21.4809340  41.3142825  11.6879806  21.2494572  41.8156212
  12.3727180  20.8730523  40.6884930  12.2653309  21.3568265  41.2958977
   9.4928948  16.3227169  48.0706878   9.4288089  17.1837125  47.9427015
   9.6326136  16.0059162  47.2702429   9.5044418  16.4027336  47.9335091
  14.3651539  24.3374472  33.5453003  14.4471376  25.1441459  33.2214454
  14.8501281  24.3570432  34.2693776  14.4488697  24.4595135  33.6039902
   8.1748042  19.0159308  42.2123081   7.7510291  19.2163807  41.4762099
   7.9992897  18.1688156  42.3247381   8.0858923  18.9208090  42.1196771
   7.6759736  30.5309821  44.6744538   8.1655666  29.8320611  44.4920203
   7.1043968  30.2333691  45.2620595   7.6644265  30.3836045  44.7345579
   3.4630487  19.5111360  37.6451053   3.6195106  19.4458163  38.5007045
   3.8031080  20.2859912  37.4329733   3.5363722  19.6160558  37.7405647
  10.0009632  18.8869243  36.5144417  10.5425177  18.3839624  36.9783037
  10.3156191  18.8334438  35.7033902  10.1274029  18.8048664  36.4628229
  13.8726739  23.0971891  53.6271329  14.6861604  22.8257040  53.7876461
  13.7121705  22.7979431  52.8231525  13.9696688  23.0126817  53.5316735
   8.1696081  24.2786595  33.7984445   8.2388902  23.4201133  33.9377445
   8.9484537  24.4958476  33.4703469   8.2948931  24.1839459  33.7701602
  11.1498901  13.7805548  46.5666717  11.3640871  13.1416462  46.0130071
  10.5332800  14.2251372  46.1374579  11.0904230  13.7515692  46.4217148
  12.5603569  26.7024296  38.0120938  12.1683361  26.3991011  37.2943804
  12.7156641  27.5393386  37.8225892  12.5257159  26.7808133  37.8777435
  13.3137989  15.3894613  47.5050024  12.5014671  15.0820503  47.5863197
  13.7727924  14.9093613  48.0692736  13.2618374  15.2731105  47.6004618
  12.7243244  23.2674285  37.9526968  12.3657898  23.4388928  38.7291001
  12.2381954  23.7287491  37.3954967  12.6001941  23.3613256  37.9852238
  10.5413630   6.8905484  41.5554060   9.6707188   6.8644205  41.5087369
  10.7953971   6.7182676  40.7379906  10.4507190   6.8615627  41.4274197
   7.5131609  18.9473450  30.4927203   7.8024134  19.7238333  30.7670777
   7.6003408  18.4362182  31.1941702   7.5685865  18.9865369  30.6369701
  10.4091497  16.7954684  52.2878726  10.8791128  17.4196801  52.6746601
  10.4553377  16.1271660  52.8471941  10.4859372  16.7889365  52.4278798
   7.5662770   8.9011712  43.0127530   7.0501259   8.2091903  43.1379109
   7.0056699   9.5682489  42.9590129   7.4069283   8.8974970  43.0233596
   9.6355004   9.4404672  44.8420383   9.2486757   9.4653703  45.6233913
   9.1487941   8.8746351  44.3894899   9.5067513   9.3600423  44.8908286
  13.8847983  24.1578181  48.8994169  14.5227704  23.6638377  48.5656625
  13.2422075  24.0855581  48.3146396  13.8842210  24.0737189  48.7636524
  15.6104983  16.0067327  43.4660085  15.1832591  15.9193676  42.7108184
  14.9731036  16.1145102  44.0514929  15.4534590  16.0099987  43.4405527
   9.3012145   6.3271657  47.1330643   9.9305263   6.8631958  46.8551713
   9.4698008   6.2349016  47.9844208   9.4189940   6.3933020  47.2179171
   9.1026060  11.1142852  49.4057054   9.9299490  10.8428001  49.4615669
   9.1233906  11.9103694  49.7620872   9.2278910  11.1922606  49.4672237
  13.9402240  24.8497989  45.5399526  14.7294618  24.4987054  45.6601608
  14.1145837  25.6634378  45.2776160  14.0822521  24.9183846  45.5187394
   3.6795550  18.2606715  42.5927315   2.8383557  18.1610589  42.8006209
   3.8885558  19.0302195  42.9441636   3.5860243  18.3598758  42.6754630
   1.1571117  15.8826252  40.4212066   0.7627815  15.9569264  39.6462175
   0.6011234  16.2684198  40.9720427   1.0173929  15.9508027  40.3879725
  12.7936064   8.8607546  40.1015945  12.9985657   8.7929854  40.9472942
  12.4662488   9.6666367  40.0337122  12.7751312   8.9693486  40.2175600
   7.4912215  16.1888114  41.8424912   7.1875352  15.6344102  42.4435320
   6.7891636  16.3680324  41.3552947   7.3428425  16.1332896  41.8594618
   6.5478312  13.4988634  36.4069614   6.8238046  12.7807546  35.9947182
   7.1476981  14.0973554  36.1990720   6.6771577  13.4809005  36.3150375
   5.5530566  23.4037835  46.5497010   5.4450921  23.4139897  47.4159068
   5.7626347  24.2292615  46.3601964   5.5680677  23.5278910  46.6501102
  16.0469752   9.4139310  39.5818710  15.4344065   9.9009712  39.9672442
  16.1433926   8.7382801  40.1256361  15.9707649   9.3857619  39.7197568
  10.0488833  11.1702151  34.6816209  10.5032579  11.3412712  35.4064054
  10.5228878  10.5570262  34.2813985  10.1857153  11.1053037  34.7289971
   3.5704358  20.6550477  44.0118948   2.9792291  21.2959975  43.9821963
   4.3325381  21.0788095  43.9850247   3.5952619  20.8126316  44.0034095
   3.9664981  11.8152475  44.6786965   4.4266462  11.8891404  45.4162089
   4.0121087  12.6133729  44.3286787   4.0415536  11.9446622  44.7359722
   5.6148330  12.4819170  49.2458993   5.2233896  11.8352517  49.6814770
   5.7834193  13.0730605  49.8653248   5.5819241  12.4733438  49.4021699
  19.6894779  20.4856247  45.0096226  19.7477903  20.9342896  45.7556203
  19.0561247  20.8955060  44.5726306  19.6046075  20.6129982  45.0548774
  13.3293874  26.1059789  41.4450972  13.1313563  26.5950603  40.7507184
  12.7081585  26.3101030  42.0235106  13.2081439  26.2076327  41.4274196
   7.3901853  17.8744686  35.7861217   8.1343897  18.2618962  36.0244166
   7.5362549  17.0302111  35.9501704   7.5212438  17.8075158  35.8455186
   9.3081428   9.6694945  40.8193078   8.4617473   9.8417752  40.6934428
   9.3052560   8.8644288  41.1558906   9.1828578   9.5755974  40.8504205
  10.3779728  13.4470159  41.6855136   9.9039683  12.9211921  42.1960447
  10.7497864  12.8999632  41.1169997  10.3629617  13.2886156  41.6770283
  16.6416459  18.5072535  43.0961916  16.4014682  17.6678950  43.1004343
  17.1208466  18.5872701  43.8202690  16.6768643  18.3953934  43.2036719
  12.3063228  14.3406714  34.7480890  11.7786247  14.4235458  34.0586599
  12.7658936  15.0824585  34.7445534  12.2965079  14.4627376  34.6455585
  18.6421646  15.2873992  41.0491176  18.4031416  15.2469826  40.2111960
  18.8055547  16.1345144  41.1756897  18.6311949  15.4066077  40.9444657
  15.2467676  19.6723941  46.9796221  15.9701875  19.2196468  46.8007241
  14.9817638  19.9528607  46.1968549  15.3148949  19.6474910  46.8374936
   4.1154545  14.2684115  43.7149100   3.4907615  14.2802507  43.1075053
   3.7800139  14.7444290  44.3640340   3.9740036  14.3402632  43.7205668
   4.2996293  12.6109233  29.7721785   3.9509098  13.2628958  30.2353334
   3.8192739  12.5966346  29.0445656   4.1766537  12.7052287  29.7332876
  11.8600311  22.9110277  33.8790547  12.5834509  23.3768390  33.7355120
  11.4200902  22.9783887  33.1288144  11.9016003  22.9894114  33.7475328
  11.0286466  19.7707819  45.1291236  10.4143459  19.2265870  45.4239871
  11.5453751  19.2572056  44.6497052  11.0142128  19.6144228  45.1015464
  10.2682763  20.8412089  42.8635534   9.8410371  20.2161808  42.4300970
  10.2607707  20.5587011  43.6894542  10.2041904  20.7064870  42.9215362
   3.3845290  15.8777262  45.9323968   3.5438777  15.1220587  46.3375690
   3.2038183  16.4268202  46.5864706   3.3810649  15.8471076  46.0886674
  11.3265593   8.0438498  46.4874758  10.8306154   8.2402172  45.7966325
  12.0834655   8.4431166  46.3163559  11.3652418   8.1316232  46.3594895
   8.5968472  11.7180844  43.0778068   8.6210960  11.1840956  42.3890848
   8.8479946  11.2098153  43.7403659   8.6378391  11.5641748  43.0742713
   4.8769795  10.4451662  42.4583813   4.9168166  10.9460869  43.1718520
   4.0519459  10.5362056  42.1889736   4.7609321  10.5333479  42.5234351
   7.0599408  20.0112402  50.5604107   6.2095038  20.1484116  50.6961752
   7.2227535  19.2776180  51.0051809   6.9583271  19.9226503  50.6459706
   6.2984158  16.9612172  44.7557712   5.4676088  17.1285990  44.5492960
   6.2435675  16.5848123  45.5406597   6.1673573  16.9301903  44.8406240
   4.6720202  15.2367764  35.2847829   4.8123163  15.7340228  35.9876471
   5.1702735  14.5354058  35.4262043   4.7661283  15.2069742  35.4099408
   4.7020424  16.1034875  32.6140406   5.3365504  16.6995300  32.5489868
   4.7846035  15.8038332  33.4286276   4.8076975  16.1475783  32.7243493
  17.6802990  18.6350352  45.4826770  18.2720830  19.2747603  45.5144968
  18.1161985  17.9373389  45.7718837  17.8321421  18.6268702  45.5307603
   6.2799407  12.0348850  32.5885848   6.6015248  11.5551933  31.9345111
   6.5426351  12.8448496  32.3976660   6.3665433  12.0838748  32.4641340
   9.5096380  23.0567724  46.1084664   9.0021471  23.6103571  46.5525295
   9.2123026  23.1176014  45.2903439   9.3901265  23.1474036  46.0533121
  11.6758562  11.4221044  44.9509327  12.1013634  10.9693570  44.3392854
  11.0615555  10.8681115  45.2274115  11.6487208  11.2735020  44.9014353
   1.2073412  18.3002715  35.8829952   1.7165642  18.8967223  36.2641258
   1.6807684  18.0328689  35.2006372   1.3516788  18.3488531  35.8384475
  12.1204160  26.9730982  34.0388608  11.4033470  26.7991844  33.5735845
  12.7710898  26.7383554  33.5064094  12.1106011  26.9126775  33.8917826
  10.1152785   7.8936144  38.3599904   9.4721103   7.7433790  38.9285043
   9.7752192   7.6478489  37.5949009   9.9697862   7.8348266  38.3302919
  14.7052131  15.8495571  37.7829913  14.0343321  16.3925273  37.6542978
  15.3991882  16.3190426  37.5411608  14.7080999  15.9993842  37.7285441
   8.7538865  27.9892283  43.0141671   8.5304520  27.2311112  43.3825698
   8.2648708  28.0190304  42.2922111   8.6482314  27.8814507  42.9618412
  14.8680259  12.3051454  40.6920286  15.2207869  11.8781177  41.3666085
  14.0095060  12.2202298  40.8221363  14.7929704  12.2296195  40.8115297
   3.5663944  14.9358974  38.7503133   2.8475933  15.3523107  39.0175996
   3.9376306  15.5013213  38.1994771   3.5155876  15.0808255  38.7085940
  12.8663525  15.5686823  44.6405128  12.8461452  15.3870118  45.4939907
  12.9142725  16.4398841  44.6164712  12.8698166  15.6703361  44.7628423
  10.8109855  22.1574015  50.5653605  10.7705709  21.5123692  49.9798761
  11.6233173  22.1010632  50.8779017  10.9253008  22.0532982  50.5250554
   7.4017322  28.2092741  40.4678756   6.9877721  27.5466871  40.0782597
   8.0864696  28.3570599  39.9474450   7.4415694  28.1333399  40.3335253
  10.7682616  27.3682826  41.2202372  10.3698899  27.4785096  40.4523193
  10.1533836  27.5764892  41.8028932  10.6181506  27.4156394  41.1933672
   9.3410518  13.9756974  34.0876512   8.7475358  14.2973970  33.5361079
   9.3785796  13.1298069  33.8797618   9.2584907  13.8981302  33.9759283
  16.3004319   7.4269866  41.6204599  15.7935184   6.7199006  41.5525776
  17.0971753   7.0963055  41.7505675  16.3431558   7.2743017  41.6303594
  12.2168335  13.9336478  37.5178262  11.9882028  13.9569180  36.6756621
  12.4766411  13.1093945  37.6373273  12.2214523  13.8152558  37.4103460
   6.4987563  15.7870951  47.1203363   5.9866466  15.1792134  47.4788394
   6.3267059  16.5027544  47.5877338   6.3977200  15.8034251  47.2419586
   1.3453278  14.2308527  49.7705724   1.1755868  14.8909902  49.2253931
   0.9019228  14.4415088  50.4918213   1.2552612  14.3594509  49.7967354
   5.2713097  12.4713025  38.8132458   5.7470464  12.8330104  38.1782639
   4.7701697  13.1269492  39.0932601   5.2678456  12.6207213  38.7609199
  18.5024459  21.9434793  34.6045463  18.8858065  22.6926149  34.8343560
  17.7068572  22.1900612  34.3457452  18.4418241  22.0904487  34.6003037
  10.3756634  13.7095196  49.5605618  10.9328064  13.4809006  48.9284084
  10.0517699  14.4700862  49.2840830  10.4103044  13.7879033  49.4262115
   8.0939751  16.7962849  50.5257625   8.8451078  17.1114526  50.8397179
   8.2862327  16.5942020  49.6991547   8.2331165  16.8130231  50.4501021
   7.3139751  14.6154224  32.1805842   7.6938715  14.6333854  31.3956957
   6.5732347  15.0608213  32.0596689   7.2608588  14.6835999  32.0469410
  14.9425041  12.9236416  37.7681421  14.9419267  12.7685072  38.6265697
  14.7381221  13.7699403  37.7122806  14.9124819  13.0257036  37.8869360
  12.6665893  17.6033917  41.4217628  13.1619558  16.8856912  41.3821648
  11.8565669  17.3004715  41.3072114  12.6209786  17.4531564  41.3991353
   8.1124505  21.4531731  33.5714632   7.3035827  21.1298404  33.5247941
   8.6199413  20.7464953  33.5042881   8.0674171  21.3013047  33.5544926
  14.7317712  20.3537605  44.1094756  15.1572784  19.8312027  43.5565181
  14.3674632  20.9518442  43.5883379  14.7404315  20.3647832  43.9503766
   4.3671792  28.6501822  42.8692102   4.6818351  29.4638211  42.8769884
   4.7765205  28.2652041  43.5374261   4.4739890  28.7130525  42.9696193
  11.3196311  24.0671869  40.4395914  11.7907490  24.7812132  40.6085899
  11.6556490  23.4670619  40.9755783  11.4391426  24.0843333  40.5428290
  13.4073296  25.6773183  52.6187986  13.5170261  24.8881743  52.9744733
  13.7364193  25.5879119  51.8162324  13.4725702  25.5479035  52.5530377
   8.2365806   8.8399340  47.3954009   8.3693712   8.0430333  47.7234984
   8.6210959   9.3665743  47.9752284   8.3122135   8.7999256  47.5297511
  11.9570258  23.8589803  47.2023606  11.4091204  23.2347687  46.9343672
  12.4183286  24.0484075  46.4867686  11.9437467  23.7948854  47.0574038
  11.3098162   5.7629666  43.9935102  10.5044125   5.6527396  44.3102940
  11.1804897   5.8642122  43.1364968  11.1718294   5.7613336  43.9143142
   7.3058921  10.8415753  34.8633474   8.1274616  11.0114065  34.6215168
   6.8428572  10.9963014  34.1399771   7.3590083  10.8897486  34.7205118
   5.8954253   8.8358515  45.6431902   6.4398666   8.4949642  46.2336244
   5.9491189   9.6943976  45.7853187   5.9843373   8.9113774  45.7513776
   1.7084812  22.5974931  42.5170710   2.3129669  22.5570765  41.8884531
   1.5012124  23.4446083  42.5474766   1.7673709  22.7162933  42.4286827
  11.5228584  24.8640876  43.7332948  12.3426958  24.7203842  43.9949243
  11.2422662  25.4887075  44.2749385  11.6025327  24.9351228  43.8520887
  15.5783059  41.1444097  37.2165986  14.8265958  40.7659635  36.9882031
  16.0269071  41.1762530  36.4684796  15.5332726  41.0929704  37.0723488
  21.0308019  41.5669466  32.6451533  20.6959387  42.2446388  32.2095755
  21.5434889  41.1774777  32.0568405  21.0573600  41.6094044  32.4938325
  20.5712310  43.5183735  38.5862645  20.9551689  44.0870633  38.0467420
  20.5071451  42.7933245  38.1068461  20.6185737  43.4959198  38.4356507
  17.1567815  41.1562489  39.4828758  17.2578178  40.3462843  39.7925886
  16.5609560  41.0619435  38.8528437  17.0840354  41.0227517  39.4354997
  25.8158809  35.0958030  34.9694134  25.6998335  35.8465716  35.3986272
  26.6114696  34.8381983  35.2190221  25.9163398  35.1692877  35.0698225
  16.9968555  46.0740078  40.8843614  17.6406010  46.5153242  41.2739773
  17.3224810  45.2693504  40.7973873  17.1400383  46.0205273  40.9289092
  10.3532859  37.1782775  39.1081092  10.1183044  36.3450428  39.0013361
  10.4918500  37.4587441  38.2942293  10.3388522  37.0966279  38.9723447
  12.6522947  29.3468506  42.0065400  12.0327979  28.7561153  41.8375415
  12.5506810  29.9379941  41.3729723  12.5460622  29.3472588  41.8870389
  17.6989134  39.0852053  36.2563476  18.0204976  39.6257260  35.6524784
  18.3461231  38.5148824  36.3885766  17.8415190  39.0811228  36.1870512
  12.3792080  32.8920788  44.2508969  12.2550777  33.4783233  44.8858788
  13.0310364  32.3980983  44.5521244  12.4565729  32.9059592  44.3894898
  19.9378778  37.4738493  36.3277654  20.3772413  36.8655593  36.7732427
  19.7883441  37.0945866  35.5563119  19.9800244  37.3276964  36.2796822
  17.4050421  36.0682505  43.5296480  18.0499423  35.5754948  43.2107428
  17.6452198  36.2107291  44.3562558  17.5361006  36.0159947  43.6046013
  19.9436512  38.9137410  43.1803372  20.2259755  38.1188816  42.9590128
  20.6722673  39.3917998  43.2008433  20.0926076  38.8672007  43.1506388
  17.9217706  26.4560444  40.4219138  17.5921036  26.9071588  39.7522836
  17.2462708  26.3776608  40.9692144  17.7728142  26.5111580  40.4042361
  23.5388114  35.8265674  33.2808424  23.4539410  36.6826641  33.4257992
  24.0272498  35.5509998  33.9490583  23.5977012  35.9122995  33.4010505
  25.1294114  22.4445967  38.6668748  24.8147555  23.1349446  39.0989171
  24.6121056  22.3890750  37.9654249  25.0058584  22.5380856  38.6265697
  24.4706548  32.4450468  34.7806159  23.9418019  32.6610102  35.4403465
  24.9931568  33.1386607  34.7007128  24.4695001  32.5793605  34.8661758
  16.3606155  36.3413685  33.5813627  15.7763371  36.8463716  33.9879491
  15.9576251  36.1156072  32.8410219  16.2145459  36.3821933  33.5318652
  11.9150184  42.0568446  40.3837298  11.4317762  42.7818936  40.3596882
  12.7273502  42.3544576  40.4947456  11.9640932  42.2070800  40.3964577
  17.9864338  40.8500627  42.9887113  17.4691280  40.4908042  42.3848421
  18.6838729  40.3262801  42.9993179  18.0129919  40.7198315  42.9017371
  21.6427930  41.2995441  48.9503286  21.7311276  41.1121581  49.7981496
  22.0717643  40.6532870  48.5508133  21.7190032  41.1758449  49.0175037
  19.2098390  40.5826601  47.9320948  18.6469225  40.1699211  48.4560609
  19.9719413  40.5079507  48.3514091  19.2392839  40.5104001  48.0713948
  20.8183370  32.5879337  32.0582547  21.0579374  32.7957321  31.2457890
  21.1399211  31.7836846  32.1671492  20.9020528  32.4993438  31.9543100
  16.1273660  24.5172733  35.9042085  16.8819628  24.8851050  35.6659135
  15.9501195  24.8912287  36.6721265  16.2128139  24.6270921  35.9826974
  14.7694381  42.5724622  40.5357578  15.4714961  42.0576611  40.5930335
  14.6891864  42.8998773  41.3404453  14.8618142  42.5438848  40.6630370
  15.8173288  32.8100209  49.6637993  15.9893792  32.7006104  50.5123275
  16.3542645  33.4554614  49.4269186  15.9218292  32.8892211  49.7543090
  14.4830725  26.9243052  32.6020198  14.3006298  27.1414933  31.7761191
  15.3456338  27.0382065  32.6578813  14.5835314  26.9732950  32.4874685
  14.0945157  38.7630974  40.0443186  14.9334056  38.9953907  40.0916948
  14.1256926  37.8935285  39.9750222  14.2226874  38.6687920  40.0407831
  14.7197860  39.1831849  44.3456492  15.2596085  39.0402980  45.0159864
  14.0367806  39.5828600  44.7140518  14.6990014  39.2211520  44.4990913
  21.7547989  40.7304460  51.6147069  22.5388406  40.8435308  51.9802811
  21.5544584  39.9045597  51.8105755  21.8414015  40.6251179  51.6981455
  10.1235005  35.4032140  44.4990913   9.8573420  34.5871257  44.6581903
  10.1373569  35.4485296  43.6286429  10.0859727  35.2889045  44.3944395
  14.0292752  30.2017224  31.1142671  13.3150929  29.9155404  31.5265104
  14.5136721  30.5413850  31.7549059  13.9952115  30.2098874  31.2698306
  14.8733611  28.9410518  47.1457921  14.1805408  28.4707498  47.3918652
  15.4893939  28.7148823  47.7199628  14.8618141  28.8377650  47.2667074
  21.2040070  38.7047178  31.4904480  21.6191218  38.3732202  30.7988975
  20.3731999  38.4716081  31.3624616  21.1428078  38.6218434  31.3695327
  10.5328419  36.1890919  41.7802657  10.3503992  36.1637805  40.9274950
  11.2678087  36.6589857  41.8191566  10.6142482  36.2552282  41.6600576
  13.5974170  32.9075922  48.2884766  14.3214143  32.8928953  48.7749661
  13.6990307  33.6171278  47.7906734  13.7192379  33.0100625  48.2863553
  20.9719120  36.3875007  53.1533713  20.1792100  36.7018519  53.3386333
  21.0868047  36.6026475  52.3154498  20.8714530  36.4658844  53.0572048
  23.6450439  33.1108998  37.4428729  23.7397293  33.8498292  37.8968354
  23.0209282  32.6826473  37.8763293  23.5659469  33.1570319  37.5736876
  21.9002912  36.2895211  48.0919010  22.4741774  35.6522455  48.2467574
  21.8217716  36.2899293  47.2228667  21.9736147  36.1960322  47.9865421
  10.4999329  33.0684420  41.9301724  11.0772831  32.9320871  42.5693969
   9.8013391  32.6120204  42.1847308  10.4820350  32.9806686  42.0624014
  23.8973460  34.9557738  30.6765681  23.8153622  35.0259925  31.5420668
  24.5353180  35.5187482  30.4849422  23.9793297  35.0496709  30.7755630
  17.2566631  34.7218476  40.1440207  16.9985875  33.8890211  40.1171507
  17.3115114  34.9476089  39.3032708  17.2266409  34.6316247  40.0160344
  16.2301343  32.2756238  40.6305102  15.6550934  32.4348407  41.2669063
  15.8537019  31.6391647  40.1673553  16.0904156  32.2054051  40.6559660
   5.9758162  31.9196313  38.6449543   6.0618414  31.5428181  39.4263073
   6.6033960  31.5456759  38.1669501   6.0814713  31.8081795  38.6895020
  21.0013570  34.9778192  33.6874287  21.8154209  35.2693085  33.5757059
  20.9372711  34.3238054  33.1132580  21.1116309  34.9243387  33.5863125
  16.8721478  38.4499710  38.8146600  17.5095425  38.2111457  39.3598393
  17.2976550  38.6536868  38.0799760  17.0297645  38.4450720  38.7863757
  11.5634121  40.6888046  42.6980903  11.6038266  40.9602897  41.8700683
  12.1228645  41.2129954  43.1138691  11.6517467  40.8063801  42.6372791
  17.5124293  33.6701999  33.1521489  17.8969446  33.4509706  33.9038034
  17.2635914  34.4964945  33.2822565  17.5326366  33.7600146  33.2822565
  17.6792834  26.9508415  52.8684073  17.3646275  27.7207977  52.6053636
  17.3582766  26.3878671  52.2836300  17.5851753  26.9818683  52.7425423
  19.2542950  38.9272132  40.4940386  19.3281959  38.7647304  41.3482236
  20.0712457  39.1162322  40.2500867  19.3859309  38.9308875  40.5838411
  13.0148707  39.2729995  37.5234829  12.1886825  39.5191732  37.3969108
  13.0760698  39.1942076  38.3896887  12.9022874  39.2974944  37.6323774
  15.2324731  25.3398936  38.4830269  14.3647156  25.4121535  38.5487879
  15.5199935  26.1421015  38.6718245  15.1464479  25.4693083  38.5205036
  17.7947536  41.8906875  35.2253859  18.0845834  41.4995857  34.5013086
  18.5251017  42.0723580  35.6659134  17.9454420  41.8600689  35.1836666
  18.3842281  36.6924621  46.3106990  17.8853975  37.4040389  46.3891878
  19.1942505  37.0125288  46.2725152  18.4298388  36.8451470  46.3163558
  15.7353452  43.8674258  38.2914009  15.5153747  43.5771612  39.0840676
  15.5147974  43.2089213  37.7631921  15.6701046  43.7273966  38.3302918
  14.6470399  35.9547574  40.5569711  14.3583647  35.3285045  41.0915438
  15.5153747  35.8967862  40.6234391  14.7330651  35.8535118  40.6460665
  17.9021407  45.2403648  37.0744701  18.5545465  44.7080090  37.3035727
  17.2047016  44.8872300  37.4612575  17.8952125  45.1093171  37.1656869
  14.8502672  37.5942825  36.4812076  15.6048640  37.9755864  36.6947538
  14.2573285  38.0453969  36.9358772  14.8739386  37.7171653  36.5794954
  25.8961326  37.5608062  36.4175681  26.4619358  38.2201272  36.3334223
  25.2489229  37.9057760  36.8892083  25.8840082  37.7090003  36.4748437
  17.3109339  29.5505666  51.6069288  16.5009115  29.8563445  51.4959130
  17.7884026  30.2711248  51.7221872  17.2612818  29.7020267  51.6076359
  16.1700899  38.7651387  41.8552191  15.6481652  38.9051678  42.5404056
  16.5574919  38.0062051  42.0454308  16.1504600  38.6736910  41.9853267
  13.1592083  28.8157195  35.9247146  12.8716879  28.4458466  35.1879093
  13.8462551  29.2852051  35.6630851  13.2180980  28.8304165  35.7762221
  22.3667904  40.5046846  35.8412760  22.1254580  39.7714706  35.4339825
  22.5469237  41.0533703  35.1879093  22.3575528  40.4769237  35.6842983
  17.5967224  35.7955406  37.2533682  17.4010007  36.4030140  36.6593985
  17.8201570  35.1023350  36.7725356  17.6001865  35.7832931  37.0949763
  15.9945754  32.6810144  37.3714550  16.7168406  32.8451302  36.9118356
  15.5153747  33.4019808  37.2653890  16.0309485  32.8108373  37.2880164
  13.6453371  35.0868216  46.4768690  14.1574468  35.3652469  45.8277450
  13.3589714  35.8257510  46.8431503  13.6788234  35.2370570  46.4358568
  10.7320277  29.5938408  36.7732427  10.8336414  30.3964569  37.1013402
  11.5276164  29.3925744  36.4755507  10.8648183  29.6824307  36.7767782
  17.1637096  27.1794605  46.5369732  16.9720294  27.1949739  47.3869155
  18.0135692  27.3758279  46.5136387  17.2612818  27.2108956  46.6593027
  11.5484009  29.7085586  44.5153548  11.4069501  28.8569527  44.6398056
  11.8324573  29.7514247  43.6915754  11.5691856  29.5885336  44.4121172
  17.6619629  34.2809395  48.0721020  17.8063005  34.8610603  47.4364130
  18.0095278  34.6585691  48.7770874  17.7347091  34.4230099  48.0820015
  19.8339547  33.4799563  45.8546151  19.0862861  33.6730578  45.4494429
  19.9881072  32.6544783  45.6170273  19.7461974  33.3864675  45.7591557
  16.7347384  42.4712167  44.9382046  16.8836948  41.9115082  44.2855451
  17.5147386  42.5504168  45.3214565  16.8721478  42.3997732  44.8978996
  27.0924024  37.6114289  33.2101317  26.7130832  36.8251427  33.2030606
  26.4290269  38.1601146  33.0672961  26.9382498  37.5759113  33.1882114
  19.2600685  42.6426809  46.2166537  19.1844356  41.9735620  46.7717326
  19.1890544  43.3444598  46.7307204  19.2381292  42.6471717  46.3743385
  20.0741324  27.3750114  46.7441555  20.5313938  28.1074088  46.8714347
  20.1497652  26.9516579  47.5028811  20.1532293  27.4207352  46.8742631
  12.3174315  27.6215934  47.8330999  11.7816504  27.0096292  48.1491766
  12.3792079  28.1964070  48.4864665  12.2469947  27.6162861  47.9766425
  24.5468649  20.5539989  40.6135398  24.6652218  21.0116452  39.8802701
  24.3730825  19.7485250  40.3271616  24.5387820  20.5033761  40.4636332
  19.9170932  41.1627808  37.0490143  20.6820823  40.8937452  36.7272808
  19.8149022  40.6777819  37.7660206  20.0152427  41.0517373  37.1069971
  17.9523701  29.3652218  43.5883379  17.1619776  29.1843678  43.9100715
  18.3484324  28.5879170  43.5713673  17.8940578  29.2239679  43.6335927
  22.4389592  38.1939992  29.0290093  23.2062577  38.2540117  28.6195944
  21.9920901  37.6220434  28.5446411  22.4863019  38.1176568  28.8967803
  20.4661532  31.8412477  48.0706878  20.4020673  32.7022433  47.9427015
  20.6058719  31.5244470  47.2702429  20.4777002  31.9212644  47.9335091
  25.3384122  39.8559780  33.5453003  25.4203960  40.6626767  33.2214454
  25.8233865  39.8755740  34.2693776  25.4221280  39.9780443  33.6039902
  19.1480626  34.5344616  42.2123081  18.7242875  34.7349115  41.4762099
  18.9725481  33.6873464  42.3247381  19.0591506  34.4393398  42.1196771
  18.6492319  46.0495129  44.6744538  19.1388249  45.3505918  44.4920203
  18.0776551  45.7518999  45.2620595  18.6376849  45.9021353  44.7345579
  14.4363071  35.0296668  37.6451053  14.5927690  34.9643470  38.5007045
  14.7763664  35.8045220  37.4329733  14.5096305  35.1345866  37.7405647
  20.9742215  34.4054551  36.5144417  21.5157761  33.9024932  36.9783037
  21.2888774  34.3519746  35.7033902  21.1006612  34.3233972  36.4628229
  19.1428665  39.7971903  33.7984445  19.2121485  38.9386441  33.9377445
  19.9217120  40.0143784  33.4703469  19.2681515  39.7024767  33.7701602
  11.0097332  32.2131618  37.9611821  11.3896297  32.6316163  37.2972088
  10.4352697  32.7945074  38.2680664  10.9808657  32.3609477  37.9088561
  23.6975827  38.7859593  37.9526968  23.3390482  38.9574236  38.7291001
  23.2114538  39.2472799  37.3954967  23.5734524  38.8798564  37.9852238
  21.5146213  22.4090791  41.5554060  20.6439771  22.3829513  41.5087369
  21.7686555  22.2367984  40.7379906  21.4239773  22.3800935  41.4274197
  18.4864193  34.4658758  30.4927203  18.7756717  35.2423641  30.7670777
  18.5735992  33.9547490  31.1941702  18.5418449  34.5050677  30.6369701
  21.3824080  32.3139992  52.2878726  21.8523711  32.9382109  52.6746601
  21.4285960  31.6456968  52.8471941  21.4591956  32.3074673  52.4278798
  18.5395354  24.4197020  43.0127530  18.0233842  23.7277211  43.1379109
  17.9789283  25.0867797  42.9590129  18.3801867  24.4160277  43.0233596
  20.6087587  24.9589980  44.8420383  20.2219340  24.9839011  45.6233913
  20.1220524  24.3931659  44.3894899  20.4800096  24.8785731  44.8908286
  20.2744729  21.8456965  47.1330643  20.9037847  22.3817265  46.8551713
  20.4430592  21.7534324  47.9844208  20.3922523  21.9118328  47.2179171
  14.6528134  33.7792023  42.5927315  13.8116140  33.6795897  42.8006209
  14.8618142  34.5487503  42.9441636  14.5592826  33.8784066  42.6754630
  12.1303701  31.4011560  40.4212066  11.7360398  31.4754572  39.6462175
  11.5743817  31.7869506  40.9720427  11.9906513  31.4693334  40.3879725
  18.4644798  31.7073422  41.8424912  18.1607936  31.1529410  42.4435320
  17.7624219  31.8865632  41.3552947  18.3161008  31.6518204  41.8594618
  17.5210896  29.0173942  36.4069614  17.7970630  28.2992854  35.9947182
  18.1209565  29.6158862  36.1990720  17.6504160  28.9994313  36.3150375
  16.5263150  38.9223143  46.5497010  16.4183504  38.9325205  47.4159068
  16.7358931  39.7477923  46.3601964  16.5413261  39.0464218  46.6501102
  14.5436942  36.1735785  44.0118948  13.9524875  36.8145283  43.9821963
  15.3057965  36.5973402  43.9850247  14.5685202  36.3311624  44.0034095
  14.9397564  27.3337783  44.6786965  15.3999046  27.4076712  45.4162089
  14.9853671  28.1319037  44.3286787  15.0148120  27.4631930  44.7359722
  16.5880914  28.0004478  49.2458993  16.1966479  27.3537825  49.6814770
  16.7566777  28.5915913  49.8653248  16.5551824  27.9918746  49.4021699
  18.3634436  33.3929994  35.7861217  19.1076481  33.7804270  36.0244166
  18.5095132  32.5487419  35.9501704  18.4945021  33.3260466  35.8455186
  20.2814012  25.1880253  40.8193078  19.4350057  25.3603060  40.6934428
  20.2785144  24.3829596  41.1558906  20.1561161  25.0941281  40.8504205
  11.7285342  30.9626974  47.0538682  12.5910955  30.8622683  46.9676011
  11.3977125  30.3821683  46.4924254  11.8070538  30.8618600  46.9584088
  15.0887128  29.7869423  43.7149100  14.4640198  29.7987815  43.1075053
  14.7532723  30.2629598  44.3640340  14.9472620  29.8587940  43.7205668
  15.2728877  28.1294541  29.7721785  14.9241681  28.7814266  30.2353334
  14.7925323  28.1151654  29.0445656  15.1499121  28.2237595  29.7332876
  11.8012804  37.8469883  45.1552864  11.2712728  37.1562322  45.2047839
  12.0737897  37.8380068  44.3265573  11.7637526  37.7437015  45.0400280
  22.8332894  38.4295585  33.8790547  23.5567093  38.8953698  33.7355120
  22.3933485  38.4969195  33.1288144  22.8748586  38.5079422  33.7475328
  14.3577873  31.3962570  45.9323968  14.5171360  30.6405895  46.3375690
  14.1770767  31.9453510  46.5864706  14.3543232  31.3656384  46.0886674
  22.2998176  23.5623806  46.4874758  21.8038738  23.7587480  45.7966325
  23.0567238  23.9616474  46.3163559  22.3385001  23.6501540  46.3594895
   7.0808646  34.5197647  42.5121212   6.9752095  34.4744491  41.6473296
   6.3308866  34.8651427  42.7935497   6.9544249  34.5638555  42.4258542
  15.8502378  25.9636970  42.4583813  15.8900750  26.4646177  43.1718520
  15.0252043  26.0547364  42.1889736  15.7341904  26.0518786  42.5234351
  18.0331991  35.5297710  50.5604107  17.1827622  35.6669424  50.6961752
  18.1960119  34.7961488  51.0051809  17.9315855  35.4411811  50.6459706
  17.2716742  32.4797480  44.7557712  16.4408671  32.6471298  44.5492960
  17.2168259  32.1033431  45.5406597  17.1406157  32.4487211  44.8406240
  15.0800525  25.9706373  50.3914122  15.7053228  25.4268506  50.6643555
  14.6251005  25.4901290  49.8221913  15.1048786  25.8195854  50.3475716
  15.6452785  30.7553072  35.2847829  15.7855747  31.2525536  35.9876471
  16.1435318  30.0539366  35.4262043  15.7393866  30.7255050  35.4099408
  15.6753008  31.6220183  32.6140406  16.3098087  32.2180608  32.5489868
  15.7578619  31.3223640  33.4286276  15.7809559  31.6661091  32.7243493
  17.2531991  27.5534158  32.5885848  17.5747832  27.0737240  31.9345111
  17.5158934  28.3633804  32.3976660  17.3398016  27.6024056  32.4641340
  20.4828964  38.5753032  46.1084664  19.9754055  39.1288879  46.5525295
  20.1855610  38.6361322  45.2903439  20.3633848  38.6659343  46.0533121
  12.1805996  33.8188023  35.8829952  12.6898225  34.4152531  36.2641258
  12.6540268  33.5513997  35.2006372  12.3249371  33.8673839  35.8384475
  23.0936744  42.4916290  34.0388608  22.3766054  42.3177152  33.5735845
  23.7443481  42.2568862  33.5064094  23.0838594  42.4312083  33.8917826
  21.0885369  23.4121452  38.3599904  20.4453687  23.2619098  38.9285043
  20.7484776  23.1663797  37.5949009  20.9430446  23.3533574  38.3302919
  19.7271449  43.5077591  43.0141671  19.5037103  42.7496420  43.3825698
  19.2381292  43.5375612  42.2922111  19.6214898  43.3999815  42.9618412
  14.5396527  30.4544282  38.7503133  13.8208517  30.8708414  39.0175996
  14.9108890  31.0198521  38.1994771  14.4888459  30.5993563  38.7085940
  21.7842438  37.6759323  50.5653605  21.7438293  37.0309000  49.9798761
  22.5965756  37.6195940  50.8779017  21.8985592  37.5718290  50.5250554
  18.3749906  43.7278049  40.4678756  17.9610304  43.0652179  40.0782597
  19.0597280  43.8755907  39.9474450  18.4148277  43.6518707  40.3335253
  17.4720147  31.3056259  47.1203363  16.9599050  30.6977442  47.4788394
  17.2999643  32.0212852  47.5877338  17.3709784  31.3219559  47.2419586
  12.3185862  29.7493835  49.7705724  12.1488452  30.4095209  49.2253931
  11.8751811  29.9600396  50.4918213  12.2285195  29.8779817  49.7967354
  16.2445681  27.9898333  38.8132458  16.7203047  28.3515412  38.1782639
  15.7434281  28.6454800  39.0932601  16.2411040  28.1392521  38.7609199
  29.4757043  37.4620101  34.6045463  29.8590648  38.2111457  34.8343560
  28.6801156  37.7085920  34.3457452  29.4150825  37.6089794  34.6003037
   9.2187926  32.6540700  45.0294214   8.6714646  31.9841346  45.1475082
  10.0080304  32.2870548  45.0937681   9.2540110  32.5005687  45.0562915
  19.0672334  32.3148157  50.5257625  19.8183661  32.6299834  50.8397179
  19.2594911  32.1127328  49.6991547  19.2063749  32.3315539  50.4501021
  18.2872334  30.1339532  32.1805842  18.6671299  30.1519162  31.3956957
  17.5464930  30.5793521  32.0596689  18.2341172  30.2021307  32.0469410
   7.9774896  31.8661508  42.1840237   7.7996657  31.4138117  42.9095153
   7.6893918  32.6687669  42.3678715   7.9087849  31.9184066  42.3183740
  19.0857088  36.9717039  33.5714632  18.2768411  36.6483712  33.5247941
  19.5931997  36.2650261  33.5042881  19.0406755  36.8198355  33.5544926
   9.7147365  34.3989232  39.2961996   8.8492885  34.3874922  39.1844767
   9.8146181  34.2119455  40.1433136   9.6021532  34.3695293  39.4050941
  15.3404375  44.1687130  42.8692102  15.6550934  44.9823519  42.8769884
  15.7497789  43.7837349  43.5374261  15.4472473  44.2315833  42.9696193
  24.3805880  41.1958490  52.6187986  24.4902845  40.4067051  52.9744733
  24.7096776  41.1064427  51.8162324  24.4458285  41.0664343  52.5530377
  19.2098390  24.3584648  47.3954009  19.3426296  23.5615641  47.7234984
  19.5943543  24.8851051  47.9752284  19.2854719  24.3184564  47.5297511
  22.2830745  21.2814974  43.9935102  21.4776709  21.1712703  44.3102940
  22.1537481  21.3827430  43.1364968  22.1450878  21.2798644  43.9143142
  18.2791505  26.3601061  34.8633474  19.1007199  26.5299373  34.6215168
  17.8161156  26.5148322  34.1399771  18.3322667  26.4082794  34.7205118
  16.8686837  24.3543823  45.6431902  17.4131250  24.0134950  46.2336244
  16.9223772  25.2129284  45.7853187  16.9575956  24.4299082  45.7513776
  12.6817395  38.1160239  42.5170710  13.2862253  38.0756073  41.8884531
  12.4744708  38.9631391  42.5474766  12.7406293  38.2348241  42.4286827
   7.9168678  37.0994856  42.3869633   7.8192956  36.2891128  42.6959690
   8.6997547  37.0786650  42.0015901   8.0184814  36.9761947  42.3756496
  26.5515643  56.6629405  37.2165986  25.7998542  56.2844943  36.9882031
  27.0001654  56.6947838  36.4684796  26.5065309  56.6115012  37.0723488
  32.0040602  57.0854774  32.6451533  31.6691971  57.7631696  32.2095755
  32.5167473  56.6960085  32.0568405  32.0306184  57.1279352  32.4938325
  31.5444894  59.0369043  38.5862645  31.9284273  59.6055941  38.0467420
  31.4804035  58.3118553  38.1068461  31.5918321  59.0144506  38.4356507
  28.1300399  56.6747797  39.4828758  28.2310762  55.8648151  39.7925886
  27.5342144  56.5804743  38.8528437  28.0572937  56.5412825  39.4354997
  27.9701138  61.5925386  40.8843614  28.6138594  62.0338550  41.2739773
  28.2957394  60.7878812  40.7973873  28.1132967  61.5390581  40.9289092
  21.3265443  52.6968083  39.1081092  21.0915627  51.8635736  39.0013361
  21.4651084  52.9772749  38.2942293  21.3121105  52.6151587  38.9723447
  28.6721718  54.6037361  36.2563476  28.9937559  55.1442568  35.6524784
  29.3193815  54.0334132  36.3885766  28.8147773  54.5996536  36.1870512
  23.3524663  48.4106096  44.2508969  23.2283360  48.9968541  44.8858788
  24.0042948  47.9166291  44.5521244  23.4298313  48.4244900  44.3894898
  30.9111361  52.9923801  36.3277654  31.3504997  52.3840901  36.7732427
  30.7616024  52.6131174  35.5563119  30.9532827  52.8462272  36.2796822
  22.8882768  57.5753754  40.3837298  22.4050346  58.3004244  40.3596882
  23.7006086  57.8729884  40.4947456  22.9373515  57.7256108  40.3964577
  28.9596922  56.3685935  42.9887113  28.4423863  56.0093350  42.3848421
  29.6571313  55.8448109  42.9993179  28.9862503  56.2383623  42.9017371
  31.7915953  48.1064645  32.0582547  32.0311957  48.3142629  31.2457890
  32.1131794  47.3022154  32.1671492  31.8753111  48.0178746  31.9543100
  27.1006244  40.0358041  35.9042085  27.8552212  40.4036358  35.6659135
  26.9233778  40.4097595  36.6721265  27.1860722  40.1456229  35.9826974
  25.7426965  58.0909930  40.5357578  26.4447544  57.5761919  40.5930335
  25.6624448  58.4184081  41.3404453  25.8350725  58.0624156  40.6630370
  25.4563308  42.4428360  32.6020198  25.2738882  42.6600241  31.7761191
  26.3188921  42.5567372  32.6578813  25.5567898  42.4918258  32.4874685
  25.0677740  54.2816282  40.0443186  25.9066640  54.5139215  40.0916948
  25.0989510  53.4120593  39.9750222  25.1959458  54.1873228  40.0407831
  25.6930443  54.7017157  44.3456492  26.2328668  54.5588288  45.0159864
  25.0100390  55.1013908  44.7140518  25.6722597  54.7396828  44.4990913
  21.0967588  50.9217448  44.4990913  20.8306004  50.1056565  44.6581903
  21.1106153  50.9670603  43.6286429  21.0592311  50.8074353  44.3944395
  25.0025335  45.7202532  31.1142671  24.2883513  45.4340712  31.5265104
  25.4869304  46.0599158  31.7549059  24.9684699  45.7284182  31.2698306
  32.1772653  54.2232486  31.4904480  32.5923802  53.8917510  30.7988975
  31.3464583  53.9901389  31.3624616  32.1160662  54.1403742  31.3695327
  21.5061002  51.7076227  41.7802657  21.3236575  51.6823113  40.9274950
  22.2410671  52.1775165  41.8191566  21.5875066  51.7737590  41.6600576
  24.5706754  48.4261230  48.2884766  25.2946726  48.4114261  48.7749661
  24.6722890  49.1356585  47.7906734  24.6924963  48.5285933  48.2863553
  21.4731912  48.5869728  41.9301724  22.0505415  48.4506179  42.5693969
  20.7745974  48.1305512  42.1847308  21.4552934  48.4991994  42.0624014
  34.8706043  50.4743046  30.6765681  34.7886206  50.5445233  31.5420668
  35.5085764  51.0372790  30.4849422  34.9525881  50.5682017  30.7755630
  16.9490746  47.4381621  38.6449543  17.0350997  47.0613489  39.4263073
  17.5766543  47.0642067  38.1669501  17.0547297  47.3267103  38.6895020
  31.9746154  50.4963500  33.6874287  32.7886792  50.7878393  33.5757059
  31.9105295  49.8423362  33.1132580  32.0848893  50.4428695  33.5863125
  27.8454062  53.9685017  38.8146600  28.4828009  53.7296765  39.3598393
  28.2709133  54.1722176  38.0799760  28.0030228  53.9636028  38.7863757
  22.5366704  56.2073354  42.6980903  22.5770850  56.4788205  41.8700683
  23.0961228  56.7315262  43.1138691  22.6250050  56.3249109  42.6372791
  30.2275534  54.4457440  40.4940386  30.3014542  54.2832612  41.3482236
  31.0445040  54.6347630  40.2500867  30.3591892  54.4494182  40.5838411
  23.9881291  54.7915303  37.5234829  23.1619408  55.0377040  37.3969108
  24.0493282  54.7127384  38.3896887  23.8755458  54.8160252  37.6323774
  28.7680120  57.4092183  35.2253859  29.0578418  57.0181164  34.5013086
  29.4983600  57.5908888  35.6659134  28.9187004  57.3785997  35.1836666
  26.7086035  59.3859566  38.2914009  26.4886331  59.0956920  39.0840676
  26.4880557  58.7274521  37.7631921  26.6433629  59.2459274  38.3302918
  25.6202982  51.4732882  40.5569711  25.3316231  50.8470353  41.0915438
  26.4886330  51.4153170  40.6234391  25.7063234  51.3720426  40.6460665
  28.8753991  60.7588956  37.0744701  29.5278049  60.2265398  37.3035727
  28.1779600  60.4057608  37.4612575  28.8684709  60.6278479  37.1656869
  25.8235256  53.1128133  36.4812076  26.5781224  53.4941172  36.6947538
  25.2305868  53.5639277  36.9358772  25.8471969  53.2356961  36.5794954
  27.1433482  54.2836694  41.8552191  26.6214236  54.4236986  42.5404056
  27.5307503  53.5247359  42.0454308  27.1237183  54.1922218  41.9853267
  24.1324666  44.3342503  35.9247146  23.8449462  43.9643774  35.1879093
  24.8195135  44.8037359  35.6630851  24.1913564  44.3489473  35.7762221
  33.3400487  56.0232154  35.8412760  33.0987163  55.2900014  35.4339825
  33.5201820  56.5719011  35.1879093  33.3308111  55.9954545  35.6842983
  21.7052861  45.1123716  36.7732427  21.8068997  45.9149877  37.1013402
  22.5008748  44.9111052  36.4755507  21.8380767  45.2009614  36.7767782
  27.7079968  57.9897474  44.9382046  27.8569531  57.4300390  44.2855451
  28.4879970  58.0689476  45.3214565  27.8454061  57.9183040  44.8978996
  23.2906898  43.1401242  47.8330999  22.7549088  42.5281600  48.1491766
  23.3524663  43.7149377  48.4864665  23.2202531  43.1348169  47.9766425
  30.8903515  56.6813116  37.0490143  31.6553406  56.4122760  36.7272808
  30.7881605  56.1963127  37.7660206  30.9885011  56.5702681  37.1069971
  33.4122176  53.7125300  29.0290093  34.1795161  53.7725425  28.6195944
  32.9653485  53.1405741  28.5446411  33.4595603  53.6361876  28.8967803
  29.6224903  61.5680437  44.6744538  30.1120833  60.8691226  44.4920203
  29.0509135  61.2704307  45.2620595  29.6109433  61.4206661  44.7345579
  30.1161248  55.3157211  33.7984445  30.1854069  54.4571749  33.9377445
  30.8949704  55.5329092  33.4703469  30.2414099  55.2210075  33.7701602
  34.5068736  57.7394912  38.0120938  34.1148528  57.4361627  37.2943804
  34.6621808  58.5764002  37.8225892  34.4722326  57.8178749  37.8777435
  21.9829916  47.7316926  37.9611821  22.3628881  48.1501471  37.2972088
  21.4085280  48.3130382  38.2680664  21.9541241  47.8794785  37.9088561
  29.4596776  49.9844066  30.4927203  29.7489301  50.7608949  30.7670777
  29.5468575  49.4732798  31.1941702  29.5151032  50.0235985  30.6369701
  22.7017926  46.4812282  47.0538682  23.5643539  46.3807991  46.9676011
  22.3709709  45.9006991  46.4924254  22.7803122  46.3803908  46.9584088
  26.2461460  43.6479849  29.7721785  25.8974265  44.2999574  30.2353334
  25.7657906  43.6336962  29.0445656  26.1231704  43.7422903  29.7332876
  22.7745387  53.3655191  45.1552864  22.2445312  52.6747630  45.2047839
  23.0470481  53.3565376  44.3265573  22.7370110  53.2622322  45.0400280
  18.0541229  50.0382955  42.5121212  17.9484679  49.9929799  41.6473296
  17.3041449  50.3836735  42.7935497  17.9276832  50.0823863  42.4258542
  28.2264574  43.0719466  32.5885848  28.5480415  42.5922548  31.9345111
  28.4891518  43.8819112  32.3976660  28.3130600  43.1209364  32.4641340
  23.1538579  49.3373331  35.8829952  23.6630809  49.9337839  36.2641258
  23.6272852  49.0699305  35.2006372  23.2981955  49.3859147  35.8384475
  34.0669327  58.0101598  34.0388608  33.3498637  57.8362460  33.5735845
  34.7176065  57.7754170  33.5064094  34.0571178  57.9497390  33.8917826
  30.7004032  59.0262898  43.0141671  30.4769687  58.2681728  43.3825698
  30.2113876  59.0560920  42.2922111  30.5947481  58.9185123  42.9618412
  29.3482489  59.2463357  40.4678756  28.9342888  58.5837487  40.0782597
  30.0329864  59.3941215  39.9474450  29.3880861  59.1704015  40.3335253
  32.7147783  58.4053442  41.2202372  32.3164067  58.5155712  40.4523193
  32.0999003  58.6135508  41.8028932  32.5646673  58.4527010  41.1933672
  23.2918445  45.2679143  49.7705724  23.1221035  45.9280517  49.2253931
  22.8484395  45.4785704  50.4918213  23.2017779  45.3965125  49.7967354
  20.1920510  48.1726008  45.0294214  19.6447229  47.5026654  45.1475082
  20.9812888  47.8055856  45.0937681  20.2272693  48.0190995  45.0562915
  29.2604918  45.6524840  32.1805842  29.6403883  45.6704469  31.3956957
  28.5197514  46.0978829  32.0596689  29.2073755  45.7206615  32.0469410
  18.9507479  47.3846816  42.1840237  18.7729240  46.9323425  42.9095153
  18.6626501  48.1872977  42.3678715  18.8820432  47.4369374  42.3183740
  20.6879949  49.9174540  39.2961996  19.8225468  49.9060230  39.1844767
  20.7878765  49.7304763  40.1433136  20.5754116  49.8880601  39.4050941
  26.3136959  59.6872438  42.8692102  26.6283518  60.5008827  42.8769884
  26.7230372  59.3022657  43.5374261  26.4205057  59.7501141  42.9696193
  33.2661479  55.1042485  40.4395914  33.7372657  55.8182748  40.6085899
  33.6021657  54.5041235  40.9755783  33.3856594  55.1213949  40.5428290
  29.2524088  41.8786368  34.8633474  30.0739783  42.0484681  34.6215168
  28.7893739  42.0333629  34.1399771  29.3055251  41.9268101  34.7205118
  23.6549979  53.6345547  42.5170710  24.2594836  53.5941381  41.8884531
  23.4477292  54.4816699  42.5474766  23.7138876  53.7533549  42.4286827
  18.8901261  52.6180164  42.3869633  18.7925539  51.8076436  42.6959690
  19.6730131  52.5971958  42.0015901  18.9917398  52.4947254  42.3756496
  37.5248226  72.1814712  37.2165986  36.7731126  71.8030251  36.9882031
  37.9734238  72.2133146  36.4684796  37.4797893  72.1300320  37.0723488
  46.4500803  68.9138520  51.0589210  47.1567570  68.4190551  51.1876145
  46.6388738  69.3547602  50.3291869  46.5828709  68.9056871  50.9698256
  42.9773186  72.6040082  32.6451533  42.6424554  73.2817004  32.2095755
  43.4900056  72.2145393  32.0568405  43.0038767  72.6464660  32.4938325
  42.5177477  74.5554351  38.5862645  42.9016857  75.1241249  38.0467420
  42.4536619  73.8303861  38.1068461  42.5650905  74.5329814  38.4356507
  39.1032982  72.1933105  39.4828758  39.2043345  71.3833459  39.7925886
  38.5074728  72.0990051  38.8528437  39.0305521  72.0598133  39.4354997
  38.9433722  77.1110694  40.8843614  39.5871177  77.5523858  41.2739773
  39.2689977  76.3064120  40.7973873  39.0865551  77.0575889  40.9289092
  32.2998027  68.2153391  39.1081092  32.0648211  67.3821044  39.0013361
  32.4383667  68.4958057  38.2942293  32.2853689  68.1336895  38.9723447
  34.5988114  60.3839122  42.0065400  33.9793146  59.7931769  41.8375415
  34.4971978  60.9750557  41.3729723  34.4925790  60.3843204  41.8870389
  39.6454302  70.1222669  36.2563476  39.9670143  70.6627876  35.6524784
  40.2926398  69.5519440  36.3885766  39.7880357  70.1181844  36.1870512
  34.3257247  63.9291404  44.2508969  34.2015944  64.5153849  44.8858788
  34.9775532  63.4351599  44.5521244  34.4030896  63.9430208  44.3894898
  39.3515588  67.1053120  43.5296480  39.9964591  66.6125564  43.2107428
  39.5917365  67.2477907  44.3562558  39.4826173  67.0530563  43.6046013
  41.8901679  69.9508026  43.1803372  42.1724922  69.1559432  42.9590128
  42.6187840  70.4288614  43.2008433  42.0391243  69.9042623  43.1506388
  51.8719768  69.0567389  40.1539203  51.0417471  69.2678032  40.3172620
  51.8229020  68.2304443  39.8781487  51.7426503  68.9656995  40.1376569
  38.3071323  67.3784301  33.5813627  37.7228538  67.8834332  33.9879491
  37.9041418  67.1526688  32.8410219  38.1610626  67.4192549  33.5318652
  33.8615351  73.0939062  40.3837298  33.3782930  73.8189552  40.3596882
  34.6738670  73.3915192  40.4947456  33.9106099  73.2441416  40.3964577
  39.9329505  71.8871243  42.9887113  39.4156447  71.5278658  42.3848421
  40.6303897  71.3633417  42.9993179  39.9595086  71.7568931  42.9017371
  43.5893097  72.3366057  48.9503286  43.6776443  72.1492197  49.7981496
  44.0182810  71.6903486  48.5508133  43.6655200  72.2129064  49.0175037
  41.1563557  71.6197217  47.9320948  40.5934392  71.2069827  48.4560609
  41.9184581  71.5450122  48.3514091  41.1858006  71.5474617  48.0713948
  36.7159549  73.6095238  40.5357578  37.4180128  73.0947227  40.5930335
  36.6357032  73.9369389  41.3404453  36.8083309  73.5809464  40.6630370
  37.7638455  63.8470825  49.6637993  37.9358959  63.7376719  50.5123275
  38.3007813  64.4925230  49.4269186  37.8683459  63.9262826  49.7543090
  36.0410324  69.8001590  40.0443186  36.8799223  70.0324523  40.0916948
  36.0722093  68.9305901  39.9750222  36.1692042  69.7058536  40.0407831
  36.6663027  70.2202465  44.3456492  37.2061252  70.0773596  45.0159864
  35.9832973  70.6199216  44.7140518  36.6455181  70.2582136  44.4990913
  49.1284083  69.7266743  40.2903919  48.6919315  69.7303485  41.0462890
  48.7946998  70.4072242  39.8583496  49.0146703  69.8279199  40.3384752
  43.7013157  71.7675076  51.6147069  44.4853573  71.8805924  51.9802811
  43.5009751  70.9416213  51.8105755  43.7879182  71.6621795  51.6981455
  32.0700172  66.4402756  44.4990913  31.8038587  65.6241873  44.6581903
  32.0838736  66.4855911  43.6286429  32.0324894  66.3259661  44.3944395
  35.9757919  61.2387840  31.1142671  35.2616096  60.9526020  31.5265104
  36.4601888  61.5784466  31.7549059  35.9417282  61.2469490  31.2698306
  43.8583550  73.6785178  45.2613525  43.0598796  73.4384678  45.5187394
  44.3069561  73.7299571  46.0080573  43.8058161  73.6507569  45.4098449
  43.1505237  69.7417794  31.4904480  43.5656385  69.4102818  30.7988975
  42.3197167  69.5086696  31.3624616  43.0893246  69.6589050  31.3695327
  32.4793586  67.2261535  41.7802657  32.2969159  67.2008421  40.9274950
  33.2143255  67.6960473  41.8191566  32.5607650  67.2922897  41.6600576
  35.5439337  63.9446538  48.2884766  36.2679310  63.9299569  48.7749661
  35.6455474  64.6541893  47.7906734  35.6657546  64.0471241  48.2863553
  42.9184287  67.4245623  53.1533713  42.1257268  67.7389135  53.3386333
  43.0333214  67.6397091  52.3154498  42.8179697  67.5029459  53.0572048
  43.8468080  67.3265826  48.0919010  44.4206941  66.6893071  48.2467574
  43.7682883  67.3269909  47.2228667  43.9201314  67.2330938  47.9865421
  32.4464496  64.1055036  41.9301724  33.0237999  63.9691487  42.5693969
  31.7478558  63.6490820  42.1847308  32.4285517  64.0177302  42.0624014
  45.8438627  65.9928354  30.6765681  45.7618790  66.0630541  31.5420668
  46.4818348  66.5558098  30.4849422  45.9258464  66.0867325  30.7755630
  39.2031798  65.7589092  40.1440207  38.9451042  64.9260826  40.1171507
  39.2580281  65.9846705  39.3032708  39.1731576  65.6686863  40.0160344
  38.1766510  63.3126854  40.6305102  37.6016102  63.4719022  41.2669063
  37.8002187  62.6762263  40.1673553  38.0369323  63.2424667  40.6559660
  27.9223329  62.9566929  38.6449543  28.0083581  62.5798797  39.4263073
  28.5499127  62.5827374  38.1669501  28.0279880  62.8452411  38.6895020
  38.8186646  69.4870325  38.8146600  39.4560592  69.2482073  39.3598393
  39.2441717  69.6907484  38.0799760  38.9762812  69.4821336  38.7863757
  33.5099288  71.7258662  42.6980903  33.5503433  71.9973513  41.8700683
  34.0693812  72.2500570  43.1138691  33.5982634  71.8434417  42.6372791
  41.2008117  69.9642748  40.4940386  41.2747126  69.8017920  41.3482236
  42.0177624  70.1532938  40.2500867  41.3324476  69.9679490  40.5838411
  55.8926440  65.1212254  43.4900502  55.8250940  65.1408213  42.6203088
  55.8782103  65.9642581  43.7156172  55.8805197  65.2485988  43.3952979
  34.9613874  70.3100611  37.5234829  34.1351992  70.5562348  37.3969108
  35.0225865  70.2312692  38.3896887  34.8488041  70.3345560  37.6323774
  39.7412703  72.9277491  35.2253859  40.0311002  72.5366472  34.5013086
  40.4716184  73.1094196  35.6659134  39.8919587  72.8971305  35.1836666
  40.3307448  67.7295237  46.3106990  39.8319142  68.4411005  46.3891878
  41.1407673  68.0495904  46.2725152  40.3763555  67.8822086  46.3163558
  37.6818619  74.9044874  38.2914009  37.4618914  74.6142228  39.0840676
  37.4613141  74.2459829  37.7631921  37.6166213  74.7644582  38.3302918
  36.5935566  66.9918190  40.5569711  36.3048815  66.3655661  41.0915438
  37.4618914  66.9338477  40.6234391  36.6795818  66.8905734  40.6460665
  39.8486574  76.2774263  37.0744701  40.5010633  75.7450706  37.3035727
  39.1512183  75.9242916  37.4612575  39.8417292  76.1463786  37.1656869
  36.7967839  68.6313441  36.4812076  37.5513807  69.0126480  36.6947538
  36.2038452  69.0824585  36.9358772  36.8204553  68.7542268  36.5794954
  38.1166066  69.8022002  41.8552191  37.5946819  69.9422294  42.5404056
  38.5040086  69.0432667  42.0454308  38.0969767  69.7107526  41.9853267
  35.1057250  59.8527811  35.9247146  34.8182046  59.4829082  35.1879093
  35.7927718  60.3222666  35.6630851  35.1646147  59.8674781  35.7762221
  44.3133071  71.5417462  35.8412760  44.0719747  70.8085322  35.4339825
  44.4934404  72.0904319  35.1879093  44.3040695  71.5139853  35.6842983
  35.5918538  66.1238832  46.4768690  36.1039635  66.4023085  45.8277450
  35.3054881  66.8628126  46.8431503  35.6253401  66.2741185  46.4358568
  32.6785445  60.6309024  36.7732427  32.7801581  61.4335185  37.1013402
  33.4741331  60.4296360  36.4755507  32.8113350  60.7194922  36.7767782
  33.4949177  60.7456202  44.5153548  33.3534668  59.8940143  44.6398056
  33.7789740  60.7884862  43.6915754  33.5157023  60.6255952  44.4121172
  38.6812551  73.5082782  44.9382046  38.8302115  72.9485698  44.2855451
  39.4612553  73.5874784  45.3214565  38.8186645  73.4368348  44.8978996
  41.2065852  73.6797425  46.2166537  41.1309523  73.0106236  46.7717326
  41.1355711  74.3815213  46.7307204  41.1846459  73.6842333  46.3743385
  41.8636099  72.1998424  37.0490143  42.6285990  71.9308068  36.7272808
  41.7614189  71.7148435  37.7660206  41.9617594  72.0887989  37.1069971
  44.3854759  69.2310608  29.0290093  45.1527745  69.2910733  28.6195944
  43.9386068  68.6591049  28.5446411  44.4328187  69.1547184  28.8967803
  47.2849289  70.8930396  33.5453003  47.3669127  71.6997382  33.2214454
  47.7699032  70.9126355  34.2693776  47.3686447  71.0151059  33.6039902
  40.5957486  77.0865745  44.6744538  41.0853417  76.3876534  44.4920203
  40.0241719  76.7889615  45.2620595  40.5842016  76.9391969  44.7345579
  36.3828238  66.0667284  37.6451053  36.5392857  66.0014086  38.5007045
  36.7228831  66.8415836  37.4329733  36.4561473  66.1716482  37.7405647
  46.7924490  69.6527814  53.6271329  47.6059355  69.3812963  53.7876461
  46.6319456  69.3535354  52.8231525  46.8894438  69.5682740  53.5316735
  41.0893832  70.8342519  33.7984445  41.1586652  69.9757057  33.9377445
  41.8682287  71.0514400  33.4703469  41.2146682  70.7395383  33.7701602
  32.9562499  63.2502234  37.9611821  33.3361464  63.6686779  37.2972088
  32.3817864  63.8315690  38.2680664  32.9273824  63.3980093  37.9088561
  40.4329360  65.5029374  30.4927203  40.7221885  66.2794257  30.7670777
  40.5201159  64.9918106  31.1941702  40.4883616  65.5421293  30.6369701
  43.3289247  63.3510608  52.2878726  43.7988878  63.9752725  52.6746601
  43.3751127  62.6827584  52.8471941  43.4057123  63.3445289  52.4278798
  46.8045734  70.7134105  48.8994169  47.4425454  70.2194300  48.5656625
  46.1619825  70.6411505  48.3146396  46.8039960  70.6293113  48.7636524
  46.8599990  71.4053913  45.5399526  47.6492369  71.0542978  45.6601608
  47.0343588  72.2190301  45.2776160  47.0020272  71.4739770  45.5187394
  36.5993301  64.8162639  42.5927315  35.7581307  64.7166513  42.8006209
  36.8083309  65.5858119  42.9441636  36.5057993  64.9154682  42.6754630
  34.0768868  62.4382176  40.4212066  33.6825565  62.5125188  39.6462175
  33.5208985  62.8240122  40.9720427  33.9371680  62.5063950  40.3879725
  38.4728317  69.9593759  46.5497010  38.3648672  69.9695821  47.4159068
  38.6824098  70.7848539  46.3601964  38.4878428  70.0834833  46.6501102
  36.4902109  67.2106401  44.0118948  35.8990042  67.8515899  43.9821963
  37.2523132  67.6344018  43.9850247  36.5150369  67.3682239  44.0034095
  46.2491625  72.6615713  41.4450972  46.0511314  73.1506527  40.7507184
  45.6279336  72.8656954  42.0235106  46.1279189  72.7632251  41.4274196
  33.6750509  61.9997589  47.0538682  34.5376122  61.8993299  46.9676011
  33.3442292  61.4192299  46.4924254  33.7535706  61.8989216  46.9584088
  37.2194044  59.1665157  29.7721785  36.8706848  59.8184882  30.2353334
  36.7390490  59.1522270  29.0445656  37.0964288  59.2608211  29.7332876
  33.7477971  68.8840499  45.1552864  33.2177895  68.1932938  45.2047839
  34.0203064  68.8750684  44.3265573  33.7102693  68.7807630  45.0400280
  44.7798061  69.4666201  33.8790547  45.5032260  69.9324314  33.7355120
  44.3398652  69.5339811  33.1288144  44.8213753  69.5450038  33.7475328
  36.3043041  62.4333186  45.9323968  36.4636527  61.6776510  46.3375690
  36.1235934  62.9824126  46.5864706  36.3008400  62.4027000  46.0886674
  29.0273813  65.5568263  42.5121212  28.9217262  65.5115107  41.6473296
  28.2774033  65.9022043  42.7935497  28.9009416  65.6009171  42.4258542
  39.9797158  66.5668326  50.5604107  39.1292789  66.7040040  50.6961752
  40.1425286  65.8332104  51.0051809  39.8781022  66.4782427  50.6459706
  37.6218175  62.6590798  32.6140406  38.2563254  63.2551223  32.5489868
  37.7043786  62.3594256  33.4286276  37.7274726  62.7031707  32.7243493
  42.4294131  69.6123648  46.1084664  41.9219222  70.1659495  46.5525295
  42.1320777  69.6731938  45.2903439  42.3099016  69.7029959  46.0533121
  34.1271163  64.8558639  35.8829952  34.6363392  65.4523147  36.2641258
  34.6005435  64.5884613  35.2006372  34.2714539  64.9044455  35.8384475
  45.0401911  73.5286906  34.0388608  44.3231221  73.3547768  33.5735845
  45.6908649  73.2939478  33.5064094  45.0303761  73.4682698  33.8917826
  41.6736616  74.5448206  43.0141671  41.4502270  73.7867036  43.3825698
  41.1846459  74.5746228  42.2922111  41.5680065  74.4370431  42.9618412
  43.7307605  68.7129939  50.5653605  43.6903460  68.0679616  49.9798761
  44.5430924  68.6566556  50.8779017  43.8450759  68.6088905  50.5250554
  40.3215073  74.7648665  40.4678756  39.9075471  74.1022795  40.0782597
  41.0062447  74.9126523  39.9474450  40.3613445  74.6889323  40.3335253
  43.6880367  73.9238750  41.2202372  43.2896650  74.0341020  40.4523193
  43.0731587  74.1320816  41.8028932  43.5379256  73.9712318  41.1933672
  31.1653093  63.6911316  45.0294214  30.6179813  63.0211962  45.1475082
  31.9545471  63.3241164  45.0937681  31.2005277  63.5376302  45.0562915
  40.2337501  61.1710148  32.1805842  40.6136466  61.1889777  31.3956957
  39.4930097  61.6164137  32.0596689  40.1806339  61.2391923  32.0469410
  29.9240063  62.9032124  42.1840237  29.7461824  62.4508733  42.9095153
  29.6359085  63.7058285  42.3678715  29.8553016  62.9554682  42.3183740
  31.6612533  65.4359848  39.2961996  30.7958052  65.4245538  39.1844767
  31.7611348  65.2490070  40.1433136  31.5486700  65.4065909  39.4050941
  37.2869542  75.2057746  42.8692102  37.6016101  76.0194135  42.8769884
  37.6962956  74.8207965  43.5374261  37.3937640  75.2686449  42.9696193
  46.3271047  72.2329106  52.6187986  46.4368012  71.4437667  52.9744733
  46.6561943  72.1435043  51.8162324  46.3923453  72.1034959  52.5530377
  44.8768008  70.4145727  47.2023606  44.3288954  69.7903611  46.9343672
  45.3381037  70.6039999  46.4867686  44.8635218  70.3504777  47.0574038
  34.6282563  69.1530855  42.5170710  35.2327420  69.1126689  41.8884531
  34.4209875  70.0002007  42.5474766  34.6871460  69.2718857  42.4286827
  44.4426335  71.4196800  43.7332948  45.2624709  71.2759766  43.9949243
  44.1620412  72.0442999  44.2749385  44.5223078  71.4907152  43.8520887
  29.8633845  68.1365472  42.3869633  29.7658123  67.3261744  42.6959690
  30.6462715  68.1157266  42.0015901  29.9649981  68.0132562  42.3756496
  60.9139985  79.0761651  36.6975824  60.8833989  79.9306288  36.8694093
  61.5121334  78.7756944  37.2561968  60.9977143  79.1578148  36.8050626
  54.1139670  78.1637303  41.4528754  53.2577565  78.3245801  41.5037871
  54.1607324  77.2929366  41.4733815  53.9938781  78.0588104  41.4634820
  57.4233387  84.4323828  51.0589210  58.1300154  83.9375859  51.1876145
  57.6121322  84.8732910  50.3291869  57.5561292  84.4242178  50.9698256
  53.9505770  88.1225390  32.6451533  53.6157138  88.8002311  32.2095755
  54.4632640  87.7330701  32.0568405  53.9771351  88.1649968  32.4938325
  56.9591491  80.2229346  44.0960406  57.5047451  80.9014433  44.1554376
  56.9008367  80.0816807  43.2361988  57.0307405  80.3021348  43.9772467
  58.7356560  81.6513954  34.9694134  58.6196086  82.4021640  35.3986272
  59.5312446  81.3937907  35.2190221  58.8361149  81.7248800  35.0698225
  43.2730610  83.7338699  39.1081092  43.0380795  82.9006351  39.0013361
  43.4116251  84.0143365  38.2942293  43.2586273  83.6522203  38.9723447
  45.5720698  75.9024430  42.0065400  44.9525729  75.3117077  41.8375415
  45.4704561  76.4935865  41.3729723  45.4658373  75.9028512  41.8870389
  50.6186885  85.6407977  36.2563476  50.9402726  86.1813184  35.6524784
  51.2658982  85.0704748  36.3885766  50.7612940  85.6367152  36.1870512
  52.6688593  77.6423971  36.3397863  53.3668758  77.8212099  36.8319326
  52.9840926  77.1194311  35.7168252  52.8183930  77.5917744  36.3199873
  45.2989831  79.4476711  44.2508969  45.1748527  80.0339157  44.8858788
  45.9508115  78.9536907  44.5521244  45.3763480  79.4615516  44.3894898
  52.8576529  84.0294417  36.3277654  53.2970164  83.4211517  36.7732427
  52.7081191  83.6501790  35.5563119  52.8997994  83.8832888  36.2796822
  50.3248172  82.6238428  43.5296480  50.9697174  82.1310871  43.2107428
  50.5649949  82.7663215  44.3562558  50.4558757  82.5715871  43.6046013
  52.8634263  85.4693334  43.1803372  53.1457506  84.6744740  42.9590128
  53.5920423  85.9473922  43.2008433  53.0123827  85.4227931  43.1506388
  50.8415457  73.0116368  40.4219138  50.5118787  73.4627512  39.7522836
  50.1660459  72.9332532  40.9692144  50.6925893  73.0667503  40.4042361
  56.4585865  82.3821598  33.2808424  56.3737160  83.2382564  33.4257992
  56.9470248  82.1065922  33.9490583  56.5174762  82.4678919  33.4010505
  58.0491865  69.0001891  38.6668748  57.7345306  69.6905370  39.0989171
  57.5318806  68.9446673  37.9654249  57.9256335  69.0936780  38.6265697
  57.3904298  79.0006392  34.7806159  56.8615770  79.2166026  35.4403465
  57.9129318  79.6942530  34.7007128  57.3892751  79.1349529  34.8661758
  49.2803906  82.8969609  33.5813627  48.6961121  83.4019640  33.9879491
  48.8774001  82.6711996  32.8410219  49.1343210  82.9377857  33.5318652
  50.9062089  87.4056551  42.9887113  50.3889031  87.0463966  42.3848421
  51.6036480  86.8818725  42.9993179  50.9327670  87.2754239  42.9017371
  54.5625681  87.8551365  48.9503286  54.6509027  87.6677505  49.7981496
  54.9915393  87.2088794  48.5508133  54.6387783  87.7314372  49.0175037
  52.1296141  87.1382525  47.9320948  51.5666975  86.7255134  48.4560609
  52.8917164  87.0635430  48.3514091  52.1590589  87.0659925  48.0713948
  53.7381121  79.1435261  32.0582547  53.9777124  79.3513245  31.2457890
  54.0596962  78.3392770  32.1671492  53.8218279  79.0549362  31.9543100
  49.0471411  71.0728657  35.9042085  49.8017379  71.4406974  35.6659135
  48.8698945  71.4468211  36.6721265  49.1325889  71.1826844  35.9826974
  62.3406310  77.2223097  43.9489625  61.5034731  77.2925284  44.1837219
  62.3094541  77.2247592  43.0763927  62.2124592  77.2333324  43.8549173
  48.7371039  79.3656133  49.6637993  48.9091542  79.2562027  50.5123275
  49.2740396  80.0110538  49.4269186  48.8416043  79.4448134  49.7543090
  47.4028476  73.4798976  32.6020198  47.2204049  73.6970856  31.7761191
  48.2654089  73.5937988  32.6578813  47.5033065  73.5288873  32.4874685
  47.0142908  85.3186898  40.0443186  47.8531807  85.5509831  40.0916948
  47.0454677  84.4491209  39.9750222  47.1424625  85.2243844  40.0407831
  47.6395611  85.7387773  44.3456492  48.1793835  85.5958904  45.0159864
  46.9565557  86.1384524  44.7140518  47.6187764  85.7767444  44.4990913
  53.0828195  70.4825386  35.6369222  53.8114355  70.3041341  35.1907378
  53.1723088  71.3243466  35.8476400  53.2034857  70.5809265  35.6022740
  57.0636495  81.4178774  39.5401516  57.8194010  81.8510288  39.5790425
  57.1698820  80.7683543  40.1136152  57.1906666  81.3856257  39.6299542
  60.1016667  85.2452051  40.2903919  59.6651898  85.2488793  41.0462890
  59.7679582  85.9257550  39.8583496  59.9879286  85.3464507  40.3384752
  54.6745740  87.2860384  51.6147069  55.4586157  87.3991231  51.9802811
  54.4742335  86.4601521  51.8105755  54.7611766  87.1807103  51.6981455
  43.0432756  81.9588064  44.4990913  42.7771171  81.1427180  44.6581903
  43.0571320  82.0041219  43.6286429  43.0057478  81.8444969  44.3944395
  60.0214149  72.2865879  42.5333347  60.6640058  72.3563983  43.1195262
  60.2737170  71.6195102  42.0312889  60.1536282  72.1992227  42.5460626
  46.9490503  76.7573148  31.1142671  46.2348680  76.4711328  31.5265104
  47.4334471  77.0969774  31.7549059  46.9149866  76.7654798  31.2698306
  47.7931362  75.4966442  47.1457921  47.1003159  75.0263422  47.3918652
  48.4091689  75.2704747  47.7199628  47.7815892  75.3933574  47.2667074
  54.8316133  89.1970486  45.2613525  54.0331379  88.9569986  45.5187394
  55.2802145  89.2484879  46.0080573  54.7790745  89.1692877  45.4098449
  63.2361013  81.9632971  39.1823556  63.8977447  81.4023639  39.0819465
  62.5952425  81.4685001  39.5076247  63.2389880  81.8069380  39.2155896
  54.1237820  85.2603102  31.4904480  54.5388969  84.9288126  30.7988975
  53.2929750  85.0272004  31.3624616  54.0625829  85.1774358  31.3695327
  43.4526169  82.7446843  41.7802657  43.2701742  82.7193729  40.9274950
  44.1875838  83.2145781  41.8191566  43.5340233  82.8108205  41.6600576
  59.5225843  82.9798353  38.9235545  59.7581433  83.1243552  38.0962396
  59.6715407  83.7440761  39.3167059  59.5791647  83.1137408  38.8599149
  46.5171921  79.4631846  48.2884766  47.2411893  79.4484877  48.7749661
  46.6188057  80.1727201  47.7906734  46.6390130  79.5656549  48.2863553
  61.3516300  81.8200019  36.7605149  61.6824517  82.3527659  36.1545244
  61.9249388  81.8738907  37.4167100  61.4849979  81.9069588  36.7682931
  53.8916870  82.9430931  53.1533713  53.0989851  83.2574443  53.3386333
  54.0065797  83.1582399  52.3154498  53.7912281  83.0214767  53.0572048
  56.5648189  79.6664922  37.4428729  56.6595044  80.4054216  37.8968354
  55.9407033  79.2382397  37.8763293  56.4857219  79.7126242  37.5736876
  54.8200663  82.8451134  48.0919010  55.3939525  82.2078379  48.2467574
  54.7415467  82.8455217  47.2228667  54.8933898  82.7516246  47.9865421
  43.4197080  79.6240344  41.9301724  43.9970582  79.4876795  42.5693969
  42.7211141  79.1676128  42.1847308  43.4018101  79.5362610  42.0624014
  56.8171211  81.5113662  30.6765681  56.7351373  81.5815849  31.5420668
  57.4550931  82.0743406  30.4849422  56.8991048  81.6052633  30.7755630
  50.1764382  81.2774400  40.1440207  49.9183626  80.4446134  40.1171507
  50.2312865  81.5032013  39.3032708  50.1464160  81.1872171  40.0160344
  55.2565432  73.3802850  40.2444300  54.5521759  72.8912036  40.4028219
  55.3050406  73.3925325  39.3732744  55.1595483  73.3092498  40.1383640
  49.1499094  78.8312162  40.6305102  48.5748685  78.9904330  41.2669063
  48.7734770  78.1947571  40.1673553  49.0101906  78.7609975  40.6559660
  52.8172383  77.3035511  45.4897480  52.4286815  76.8789729  44.8349672
  52.1527081  77.5517661  45.9974507  52.6619310  77.2774232  45.4685348
  62.4595652  77.0610516  38.2645310  62.2032217  76.2490457  38.0743193
  63.3024966  77.0688083  38.0375498  62.5461677  76.9422513  38.2030128
  38.8955913  78.4752237  38.6449543  38.9816165  78.0984105  39.4263073
  39.5231710  78.1012682  38.1669501  39.0012464  78.3637719  38.6895020
  56.6398744  71.0010140  43.0021465  57.0209256  70.3188311  43.3889339
  55.8362028  70.7119742  42.8197129  56.5775206  70.8577189  43.0325521
  53.9211321  81.5334116  33.6874287  54.7351960  81.8249009  33.5757059
  53.8570462  80.8793978  33.1132580  54.0314060  81.4799311  33.5863125
  60.1420811  84.2160112  48.1003863  59.9059448  83.3848177  47.9815924
  60.7864040  84.1645719  48.6858707  60.2015482  84.0857800  48.1689757
  49.7919229  85.0055633  38.8146600  50.4293176  84.7667381  39.3598393
  50.2174301  85.2092792  38.0799760  49.9495395  85.0006644  38.7863757
  50.4322044  80.2257923  33.1521489  50.8167197  80.0065630  33.9038034
  50.1833664  81.0520869  33.2822565  50.4524117  80.3156069  33.2822565
  50.5990585  73.5064338  52.8684073  50.2844026  74.2763901  52.6053636
  50.2780517  72.9434594  52.2836300  50.5049504  73.5374607  52.7425423
  61.1657232  84.0004561  44.1632158  60.8603049  84.7332618  44.5245473
  60.4463447  83.5942490  43.8824944  61.0144574  84.0486294  44.1745295
  52.1740701  85.4828056  40.4940386  52.2479709  85.3203228  41.3482236
  52.9910207  85.6718246  40.2500867  52.3057060  85.4864798  40.5838411
  66.8659024  80.6397561  43.4900502  66.7983524  80.6593521  42.6203088
  66.8514686  81.4827889  43.7156172  66.8537780  80.7671296  43.3952979
  45.9346458  85.8285919  37.5234829  45.1084575  86.0747656  37.3969108
  45.9958449  85.7498000  38.3896887  45.8220625  85.8530868  37.6323774
  48.1522481  71.8954860  38.4830269  47.2844907  71.9677459  38.5487879
  48.4397686  72.6976939  38.6718245  48.0662230  72.0249007  38.5205036
  57.2755370  72.0432719  46.8141591  58.0208962  71.8542530  46.4005017
  56.8592675  72.5690957  46.2555448  57.3240344  72.0934865  46.6706164
  64.6517641  79.4141948  41.7647096  65.2025563  78.7810017  42.0044188
  64.6361756  79.9457340  42.4562600  64.7302837  79.3990896  41.9025954
  51.3040032  83.2480545  46.3106990  50.8051726  83.9596313  46.3891878
  52.1140256  83.5681212  46.2725152  51.3496139  83.4007394  46.3163558
  47.5668150  82.5103498  40.5569711  47.2781398  81.8840969  41.0915438
  48.4351498  82.4523785  40.6234391  47.6528401  82.4091042  40.6460665
  58.3546047  77.6538281  40.8751692  58.0110813  76.9328617  41.2258942
  58.4539090  77.4452133  40.0330051  58.3188090  77.5162485  40.8023372
  47.7700423  84.1498749  36.4812076  48.5246391  84.5311788  36.6947538
  47.1771036  84.6009893  36.9358772  47.7937136  84.2727576  36.5794954
  58.8159076  84.1163985  36.4175681  59.3817109  84.7757195  36.3334223
  58.1686980  84.4613683  36.8892083  58.8037833  84.2645927  36.4748437
  50.2307090  76.1061589  51.6069288  49.4206866  76.4119369  51.4959130
  50.7081777  76.8267172  51.7221872  50.1810569  76.2576191  51.6076359
  49.0898650  85.3207310  41.8552191  48.5679403  85.4607602  42.5404056
  49.4772670  84.5617975  42.0454308  49.0702350  85.2292834  41.9853267
  46.0789834  75.3713119  35.9247146  45.7914629  75.0014390  35.1879093
  46.7660302  75.8407974  35.6630851  46.1378731  75.3860088  35.7762221
  55.2865654  87.0602770  35.8412760  55.0452330  86.3270630  35.4339825
  55.4666987  87.6089627  35.1879093  55.2773278  87.0325161  35.6842983
  50.5164975  82.3511329  37.2533682  50.3207758  82.9586064  36.6593985
  50.7399321  81.6579273  36.7725356  50.5199616  82.3388855  37.0949763
  48.9143505  79.2366067  37.3714550  49.6366157  79.4007225  36.9118356
  48.4351498  79.9575732  37.2653890  48.9507236  79.3664297  37.2880164
  56.8737013  75.5729866  42.7511235  56.0348113  75.5991145  42.5149499
  56.9441380  76.2200602  43.3316582  56.7605406  75.6725992  42.8020352
  46.5651122  81.6424140  46.4768690  47.0772219  81.9208393  45.8277450
  46.2787464  82.3813434  46.8431503  46.5985985  81.7926493  46.4358568
  55.3206291  72.4715243  37.4838851  56.0232644  72.2722991  37.0058809
  55.0550480  71.6991185  37.7907695  55.3852923  72.3278209  37.4584293
  60.7494537  80.7797853  40.0372477  60.6628511  80.9353279  40.8907256
  60.2945016  81.4235928  39.6631882  60.6697793  80.8973608  40.1079584
  43.6518028  76.1494332  36.7732427  43.7534165  76.9520493  37.1013402
  44.4473915  75.9481667  36.4755507  43.7845934  76.2380230  36.7767782
  50.0834847  73.7350528  46.5369732  49.8918044  73.7505663  47.3869155
  50.9333443  73.9314203  46.5136387  50.1810569  73.7664879  46.6593027
  44.4681760  76.2641510  44.5153548  44.3267252  75.4125450  44.6398056
  44.7522324  76.3070170  43.6915754  44.4889606  76.1441260  44.4121172
  54.6220353  78.1008600  38.6598037  54.3755067  78.0204351  39.4934826
  54.9505476  77.3162068  38.4660564  54.6341596  77.9734865  38.7545560
  58.5168401  84.8091959  42.4484818  58.3782761  85.5073005  42.9533560
  57.7368399  84.6540616  42.0921000  58.3811628  84.8892126  42.4711092
  56.8546487  81.1088335  48.7007200  56.8494525  80.2368151  48.7049626
  57.5607480  81.3076504  48.2276655  56.9591491  81.0092209  48.6314235
  50.5817380  80.8365319  48.0721020  50.7260756  81.4166527  47.4364130
  50.9293028  81.2141615  48.7770874  50.6544841  80.9786023  48.0820015
  52.7537297  80.0355487  45.8546151  52.0060611  80.2286501  45.4494429
  52.9078822  79.2100706  45.6170273  52.6659725  79.9420598  45.7591557
  60.0121774  84.1670213  33.2101317  59.6328583  83.3807351  33.2030606
  59.3488020  84.7157070  33.0672961  59.8580249  84.1315037  33.1882114
  52.9939074  73.9306038  46.7441555  53.4511688  74.6630012  46.8714347
  53.0695403  73.5072503  47.5028811  53.0730044  73.9763276  46.8742631
  45.2372065  74.1771857  47.8330999  44.7014255  73.5652216  48.1491766
  45.2989830  74.7519993  48.4864665  45.1667698  74.1718785  47.9766425
  57.4666400  67.1095913  40.6135398  57.5849968  67.5672376  39.8802701
  57.2928576  66.3041174  40.3271616  57.4585571  67.0589685  40.4636332
  52.8368682  87.7183732  37.0490143  53.6018574  87.4493376  36.7272808
  52.7346772  87.2333742  37.7660206  52.9350178  87.6073297  37.1069971
  50.8721452  75.9208142  43.5883379  50.0817527  75.7399602  43.9100715
  51.2682075  75.1435094  43.5713673  50.8138328  75.7795602  43.6335927
  55.3587343  84.7495916  29.0290093  56.1260328  84.8096041  28.6195944
  54.9118652  84.1776357  28.5446411  55.4060770  84.6732492  28.8967803
  56.2565138  83.5550572  41.3142825  55.5810140  83.3235804  41.8156212
  56.2657515  82.9471755  40.6884930  56.1583643  83.4309497  41.2958977
  53.3859282  78.3968401  48.0706878  53.3218424  79.2578357  47.9427015
  53.5256470  78.0800394  47.2702429  53.3974753  78.4768567  47.9335091
  58.2581873  86.4115704  33.5453003  58.3401710  87.2182690  33.2214454
  58.7431615  86.4311663  34.2693776  58.3419031  86.5336366  33.6039902
  52.0678376  81.0900540  42.2123081  51.6440625  81.2905039  41.4762099
  51.8923232  80.2429388  42.3247381  51.9789257  80.9949321  42.1196771
  47.3560821  81.5852591  37.6451053  47.5125440  81.5199394  38.5007045
  47.6961414  82.3601144  37.4329733  47.4294056  81.6901790  37.7405647
  53.8939966  80.9610475  36.5144417  54.4355511  80.4580856  36.9783037
  54.2086525  80.9075670  35.7033902  54.0204363  80.8789896  36.4628229
  57.7657073  85.1713122  53.6271329  58.5791939  84.8998271  53.7876461
  57.6052040  84.8720662  52.8231525  57.8627022  85.0868048  53.5316735
  52.0626416  86.3527827  33.7984445  52.1319236  85.4942365  33.9377445
  52.8414871  86.5699707  33.4703469  52.1879266  86.2580691  33.7701602
  55.0429235  75.8546780  46.5666717  55.2571205  75.2157694  46.0130071
  54.4263135  76.2992603  46.1374579  54.9834565  75.8256923  46.4217148
  43.9295083  78.7687542  37.9611821  44.3094048  79.1872087  37.2972088
  43.3550448  79.3500998  38.2680664  43.9006408  78.9165401  37.9088561
  57.2068323  77.4635845  47.5050024  56.3945005  77.1561735  47.5863197
  57.6658258  76.9834845  48.0692736  57.1548708  77.3472337  47.6004618
  56.6173578  85.3415517  37.9526968  56.2588233  85.5130160  38.7291001
  56.1312289  85.8028722  37.3954967  56.4932275  85.4354488  37.9852238
  54.4343964  68.9646715  41.5554060  53.5637522  68.9385436  41.5087369
  54.6884305  68.7923907  40.7379906  54.3437524  68.9356859  41.4274197
  51.4061943  81.0214682  30.4927203  51.6954468  81.7979565  30.7670777
  51.4933742  80.5103414  31.1941702  51.4616200  81.0606600  30.6369701
  54.3021831  78.8695916  52.2878726  54.7721462  79.4938033  52.6746601
  54.3483711  78.2012892  52.8471941  54.3789707  78.8630596  52.4278798
  51.4593104  70.9752944  43.0127530  50.9431593  70.2833135  43.1379109
  50.8987033  71.6423721  42.9590129  51.2999618  70.9716201  43.0233596
  53.5285338  71.5145904  44.8420383  53.1417091  71.5394935  45.6233913
  53.0418275  70.9487582  44.3894899  53.3997847  71.4341655  44.8908286
  57.7778317  86.2319413  48.8994169  58.4158038  85.7379608  48.5656625
  57.1352409  86.1596813  48.3146396  57.7772544  86.1478421  48.7636524
  59.5035317  78.0808559  43.4660085  59.0762926  77.9934907  42.7108184
  58.8661370  78.1886334  44.0514929  59.3464925  78.0841218  43.4405527
  53.1942480  68.4012889  47.1330643  53.8235598  68.9373189  46.8551713
  53.3628342  68.3090248  47.9844208  53.3120274  68.4674251  47.2179171
  52.9956395  73.1884084  49.4057054  53.8229824  72.9169233  49.4615669
  53.0164241  73.9844926  49.7620872  53.1209245  73.2663838  49.4672237
  57.8332574  86.9239221  45.5399526  58.6224952  86.5728286  45.6601608
  58.0076172  87.7375609  45.2776160  57.9752856  86.9925078  45.5187394
  47.5725884  80.3347947  42.5927315  46.7313891  80.2351821  42.8006209
  47.7815892  81.1043427  42.9441636  47.4790577  80.4339990  42.6754630
  45.0501451  77.9567484  40.4212066  44.6558149  78.0310495  39.6462175
  44.4941568  78.3425430  40.9720427  44.9104264  78.0249258  40.3879725
  56.6866398  70.9348778  40.1015945  56.8915991  70.8671086  40.9472942
  56.3592822  71.7407599  40.0337122  56.6681646  71.0434718  40.2175600
  51.3842549  78.2629346  41.8424912  51.0805687  77.7085334  42.4435320
  50.6821970  78.4421556  41.3552947  51.2358759  78.2074128  41.8594618
  50.4408646  75.5729866  36.4069614  50.7168381  74.8548778  35.9947182
  51.0407316  76.1714786  36.1990720  50.5701911  75.5550236  36.3150375
  49.4460900  85.4779067  46.5497010  49.3381255  85.4881129  47.4159068
  49.6556682  86.3033847  46.3601964  49.4611011  85.6020141  46.6501102
  59.9400086  71.4880542  39.5818710  59.3274399  71.9750944  39.9672442
  60.0364261  70.8124033  40.1256361  59.8637983  71.4598851  39.7197568
  53.9419167  73.2443383  34.6816209  54.3962913  73.4153943  35.4064054
  54.4159213  72.6311494  34.2813985  54.0787487  73.1794268  34.7289971
  47.4634692  82.7291709  44.0118948  46.8722625  83.3701207  43.9821963
  48.2255716  83.1529326  43.9850247  47.4882953  82.8867547  44.0034095
  47.8595315  73.8893707  44.6786965  48.3196797  73.9632636  45.4162089
  47.9051422  74.6874961  44.3286787  47.9345870  74.0187854  44.7359722
  49.5078665  74.5560402  49.2458993  49.1164230  73.9093749  49.6814770
  49.6764528  75.1471837  49.8653248  49.4749575  74.5474669  49.4021699
  63.5825114  82.5597479  45.0096226  63.6408238  83.0084127  45.7556203
  62.9491581  82.9696291  44.5726306  63.4976409  82.6871213  45.0548774
  51.2832187  79.9485917  35.7861217  52.0274232  80.3360194  36.0244166
  51.4292883  79.1043343  35.9501704  51.4142772  79.8816390  35.8455186
  53.2011762  71.7436176  40.8193078  52.3547807  71.9158984  40.6934428
  53.1982895  70.9385520  41.1558906  53.0758912  71.6497205  40.8504205
  54.2710063  75.5211391  41.6855136  53.7970017  74.9953153  42.1960447
  54.6428198  74.9740864  41.1169997  54.2559952  75.3627387  41.6770283
  44.6483093  77.5182897  47.0538682  45.5108706  77.4178607  46.9676011
  44.3174876  76.9377607  46.4924254  44.7268289  77.4174524  46.9584088
  60.5346793  80.5813766  43.0961916  60.2945016  79.7420182  43.1004343
  61.0138800  80.6613933  43.8202690  60.5698977  80.4695166  43.2036719
  56.1993562  76.4147945  34.7480890  55.6716581  76.4976689  34.0586599
  56.6589270  77.1565817  34.7445534  56.1895413  76.5368608  34.6455585
  62.5351980  77.3615224  41.0491176  62.2961750  77.3211058  40.2111960
  62.6985882  78.2086376  41.1756897  62.5242284  77.4807309  40.9444657
  59.1398010  81.7465173  46.9796221  59.8632209  81.2937699  46.8007241
  58.8747973  82.0269839  46.1968549  59.2079284  81.7216141  46.8374936
  48.0084879  76.3425346  43.7149100  47.3837949  76.3543738  43.1075053
  47.6730474  76.8185522  44.3640340  47.8670371  76.4143863  43.7205668
  48.1926627  74.6850465  29.7721785  47.8439432  75.3370190  30.2353334
  47.7123073  74.6707578  29.0445656  48.0696871  74.7793518  29.7332876
  44.7210554  84.4025807  45.1552864  44.1910479  83.7118245  45.2047839
  44.9935648  84.3935992  44.3265573  44.6835277  84.2992938  45.0400280
  55.7530645  84.9851509  33.8790547  56.4764844  85.4509622  33.7355120
  55.3131236  85.0525118  33.1288144  55.7946337  85.0635346  33.7475328
  54.9216800  81.8449051  45.1291236  54.3073793  81.3007101  45.4239871
  55.4384085  81.3313288  44.6497052  54.9072462  81.6885460  45.1015464
  54.1613097  82.9153321  42.8635534  53.7340705  82.2903040  42.4300970
  54.1538041  82.6328243  43.6894542  54.0972238  82.7806102  42.9215362
  47.2775624  77.9518494  45.9323968  47.4369111  77.1961818  46.3375690
  47.0968518  78.5009434  46.5864706  47.2740983  77.9212308  46.0886674
  55.2195927  70.1179730  46.4874758  54.7236488  70.3143404  45.7966325
  55.9764989  70.5172398  46.3163559  55.2582752  70.2057464  46.3594895
  52.4898807  73.7922076  43.0778068  52.5141294  73.2582188  42.3890848
  52.7410280  73.2839385  43.7403659  52.5308725  73.6382980  43.0742713
  40.0006397  81.0753571  42.5121212  39.8949846  81.0300415  41.6473296
  39.2506617  81.4207351  42.7935497  39.8742000  81.1194479  42.4258542
  48.7700129  72.5192894  42.4583813  48.8098501  73.0202101  43.1718520
  47.9449794  72.6103288  42.1889736  48.6539655  72.6074710  42.5234351
  50.9529742  82.0853634  50.5604107  50.1025372  82.2225348  50.6961752
  51.1157870  81.3517412  51.0051809  50.8513605  81.9967735  50.6459706
  50.1914492  79.0353404  44.7557712  49.3606422  79.2027222  44.5492960
  50.1366010  78.6589355  45.5406597  50.0603907  79.0043135  44.8406240
  47.9998276  72.5262297  50.3914122  48.6250979  71.9824429  50.6643555
  47.5448756  72.0457214  49.8221913  48.0246536  72.3751778  50.3475716
  48.5650536  77.3108995  35.2847829  48.7053497  77.8081460  35.9876471
  49.0633069  76.6095290  35.4262043  48.6591617  77.2810974  35.4099408
  48.5950759  78.1776106  32.6140406  49.2295838  78.7736531  32.5489868
  48.6776369  77.8779564  33.4286276  48.7007310  78.2217014  32.7243493
  61.5733324  80.7091584  45.4826770  62.1651165  81.3488834  45.5144968
  62.0092319  80.0114620  45.7718837  61.7251756  80.7009934  45.5307603
  50.1729741  74.1090082  32.5885848  50.4945583  73.6293164  31.9345111
  50.4356685  74.9189728  32.3976660  50.2595767  74.1579980  32.4641340
  53.4026714  85.1308956  46.1084664  52.8951805  85.6844803  46.5525295
  53.1053360  85.1917246  45.2903439  53.2831599  85.2215267  46.0533121
  55.5688896  73.4962276  44.9509327  55.9943968  73.0434802  44.3392854
  54.9545890  72.9422346  45.2274115  55.5417542  73.3476252  44.9014353
  45.1003746  80.3743947  35.8829952  45.6095976  80.9708455  36.2641258
  45.5738019  80.1069921  35.2006372  45.2447122  80.4229763  35.8384475
  56.0134495  89.0472214  34.0388608  55.2963804  88.8733076  33.5735845
  56.6641232  88.8124786  33.5064094  56.0036345  88.9868006  33.8917826
  54.0083119  69.9677376  38.3599904  53.3651437  69.8175022  38.9285043
  53.6682526  69.7219721  37.5949009  53.8628197  69.9089498  38.3302919
  58.5982466  77.9236802  37.7829913  57.9273656  78.4666505  37.6542978
  59.2922216  78.3931658  37.5411608  58.6011333  78.0735074  37.7285441
  58.7610593  74.3792686  40.6920286  59.1138203  73.9522409  41.3666085
  57.9025395  74.2943529  40.8221363  58.6860038  74.3037427  40.8115297
  47.4594278  77.0100206  38.7503133  46.7406267  77.4264338  39.0175996
  47.8306641  77.5754444  38.1994771  47.4086210  77.1549487  38.7085940
  56.7593859  77.6428055  44.6405128  56.7391786  77.4611350  45.4939907
  56.8073060  78.5140073  44.6164712  56.7628500  77.7444593  44.7628423
  54.7040189  84.2315247  50.5653605  54.6636044  83.5864924  49.9798761
  55.5163507  84.1751864  50.8779017  54.8183342  84.1274213  50.5250554
  53.2340853  76.0498206  34.0876512  52.6405692  76.3715202  33.5361079
  53.2716130  75.2039301  33.8797618  53.1515242  75.9722534  33.9759283
  60.1934653  69.5011098  41.6204599  59.6865518  68.7940237  41.5525776
  60.9902087  69.1704287  41.7505675  60.2361893  69.3484249  41.6303594
  56.1098669  76.0077710  37.5178262  55.8812362  76.0310411  36.6756621
  56.3696745  75.1835177  37.6373273  56.1144857  75.8893790  37.4103460
  50.3917898  77.8612183  47.1203363  49.8796801  77.2533366  47.4788394
  50.2197394  78.5768776  47.5877338  50.2907535  77.8775482  47.2419586
  45.2383612  76.3049758  49.7705724  45.0686203  76.9651133  49.2253931
  44.7949562  76.5156320  50.4918213  45.1482946  76.4335741  49.7967354
  49.1643432  74.5454256  38.8132458  49.6400798  74.9071336  38.1782639
  48.6632031  75.2010724  39.0932601  49.1608791  74.6948445  38.7609199
  54.2686968  75.7836428  49.5605618  54.8258398  75.5550237  48.9284084
  53.9448033  76.5442093  49.2840830  54.3033378  75.8620264  49.4262115
  42.1385677  79.2096624  45.0294214  41.5912396  78.5397270  45.1475082
  42.9278055  78.8426472  45.0937681  42.1737860  79.0561610  45.0562915
  51.9870085  78.8704081  50.5257625  52.7381412  79.1855758  50.8397179
  52.1792662  78.6683252  49.6991547  52.1261499  78.8871463  50.4501021
  51.2070085  76.6895456  32.1805842  51.5869050  76.7075085  31.3956957
  50.4662681  77.1349445  32.0596689  51.1538923  76.7577231  32.0469410
  58.8355375  74.9977647  37.7681421  58.8349602  74.8426304  38.6265697
  58.6311555  75.8440634  37.7122806  58.8055153  75.0998268  37.8869360
  40.8972646  78.4217432  42.1840237  40.7194407  77.9694041  42.9095153
  40.6091668  79.2243593  42.3678715  40.8285599  78.4739990  42.3183740
  56.5596227  79.6775149  41.4217628  57.0549893  78.9598144  41.3821648
  55.7496003  79.3745947  41.3072114  56.5140121  79.5272795  41.3991353
  52.0054839  83.5272962  33.5714632  51.1966162  83.2039636  33.5247941
  52.5129748  82.8206184  33.5042881  51.9604506  83.3754279  33.5544926
  42.6345116  80.9545156  39.2961996  41.7690636  80.9430846  39.1844767
  42.7343932  80.7675378  40.1433136  42.5219283  80.9251217  39.4050941
  58.6248046  82.4278837  44.1094756  59.0503118  81.9053258  43.5565181
  58.2604966  83.0259674  43.5883379  58.6334649  82.4389064  43.9503766
  55.2126646  86.1413101  40.4395914  55.6837824  86.8553363  40.6085899
  55.5486824  85.5411851  40.9755783  55.3321761  86.1584565  40.5428290
  57.3003630  87.7514414  52.6187986  57.4100596  86.9622975  52.9744733
  57.6294527  87.6620350  51.8162324  57.3656036  87.6220267  52.5530377
  52.1296141  70.9140571  47.3954009  52.2624046  70.1171565  47.7234984
  52.5141293  71.4406974  47.9752284  52.2052470  70.8740488  47.5297511
  55.8500592  85.9331035  47.2023606  55.3021538  85.3088919  46.9343672
  56.3113621  86.1225307  46.4867686  55.8367801  85.8690085  47.0574038
  55.2028496  67.8370898  43.9935102  54.3974460  67.7268627  44.3102940
  55.0735231  67.9383353  43.1364968  55.0648629  67.8354568  43.9143142
  58.6594456  74.0016390  44.5874799  58.0757445  74.5025596  44.1752366
  58.9798750  73.4945946  43.9539122  58.6207632  74.0008225  44.4333306
  51.1989256  72.9156984  34.8633474  52.0204950  73.0855297  34.6215168
  50.7358906  73.0704245  34.1399771  51.2520418  72.9638717  34.7205118
  49.7884587  70.9099747  45.6431902  50.3329000  70.5690873  46.2336244
  49.8421523  71.7685208  45.7853187  49.8773707  70.9855006  45.7513776
  45.6015146  84.6716163  42.5170710  46.2060004  84.6311997  41.8884531
  45.3942459  85.5187315  42.5474766  45.6604043  84.7904165  42.4286827
  55.4158918  86.9382108  43.7332948  56.2357292  86.7945074  43.9949243
  55.1352996  87.5628307  44.2749385  55.4955662  87.0092460  43.8520887
  40.8366428  83.6550780  42.3869633  40.7390707  82.8447052  42.6959690
  41.6195298  83.6342573  42.0015901  40.9382565  83.5317870  42.3756496
  27.6893058   9.4583859  23.6315871  27.6587063  10.3128496  23.8034140
  28.2874407   9.1579151  24.1902014  27.7730216   9.5400355  23.7390673
  20.8892743   8.5459510  28.3868801  20.0330639   8.7068008  28.4377918
  20.9360397   7.6751574  28.4073862  20.7691855   8.4410312  28.3974867
  15.2733883  18.0822228  24.1506033  14.5216782  17.7037766  23.9222078
  15.7219895  18.1140661  23.4024843  15.2283550  18.0307835  24.0063535
  24.1986460  14.8146036  37.9929257  24.9053227  14.3198066  38.1216192
  24.3874395  15.2555117  37.2631915  24.3314365  14.8064386  37.9038303
  20.7258843  18.5047597  19.5791580  20.3910211  19.1824519  19.1435802
  21.2385713  18.1152909  18.9908452  20.7524424  18.5472176  19.4278371
  20.2663134  20.4561866  25.5202691  20.6502513  21.0248765  24.9807467
  20.2022275  19.7311376  25.0408507  20.3136561  20.4337329  25.3696554
  23.7344564  10.6051554  31.0300453  24.2800524  11.2836640  31.0894423
  23.6761441  10.4639015  30.1702034  23.8060479  10.6843556  30.9112513
  16.8518639  18.0940620  26.4168805  16.9529002  17.2840974  26.7265933
  16.2560384  17.9997566  25.7868484  16.7791178  17.9605648  26.3695044
  25.5109633  12.0336161  21.9034181  25.3949159  12.7843847  22.3326319
  26.3065520  11.7760114  22.1530268  25.6114222  12.1071008  22.0038272
  16.6919379  23.0118209  27.8183661  17.3356834  23.4531373  28.2079820
  17.0175634  22.2071635  27.7313920  16.8351207  22.9583404  27.8629139
  10.0483683  14.1160906  26.0421139   9.8133868  13.2828559  25.9353408
  10.1869324  14.3965572  25.2282340  10.0339346  14.0344410  25.9063494
  12.3473771   6.2846637  28.9405447  11.7278802   5.6939284  28.7715461
  12.2457634   6.8758072  28.3069770  12.2411446   6.2850720  28.8210436
  17.3939958  16.0230184  23.1903523  17.7155799  16.5635391  22.5864831
  18.0412055  15.4526955  23.3225813  17.5366014  16.0189359  23.1210558
  19.4441666   8.0246179  23.2737910  20.1421831   8.2034306  23.7659373
  19.7593999   7.5016518  22.6508299  19.5937004   7.9739951  23.2539920
  12.0742904   9.8298919  31.1849016  11.9501601  10.4161364  31.8198834
  12.7261188   9.3359115  31.4861291  12.1516553   9.8437723  31.3234945
  19.6329602  14.4116624  23.2617701  20.0723237  13.8033724  23.7072474
  19.4834265  14.0323997  22.4903166  19.6751068  14.2655095  23.2136869
  17.1001245  13.0060636  30.4636527  17.7450247  12.5133079  30.1447475
  17.3403022  13.1485422  31.2902605  17.2311830  12.9538078  30.5386060
  19.6387336  15.8515542  30.1143419  19.9210579  15.0566947  29.8930175
  20.3673497  16.3296129  30.1348480  19.7876900  15.8050139  30.0846434
  17.6168530   3.3938576  27.3559184  17.2871860   3.8449719  26.6862883
  16.9413532   3.3154739  27.9032191  17.4678966   3.4489711  27.3382408
  23.2338938  12.7643805  20.2148470  23.1490233  13.6204772  20.3598039
  23.7223322  12.4888129  20.8830630  23.2927836  12.8501127  20.3350552
  24.8244938  -0.6175902  25.6008795  24.5098379   0.0727577  26.0329217
  24.3071879  -0.6731119  24.8994296  24.7009408  -0.5241013  25.5605744
  24.1657372   9.3828599  21.7146206  23.6368843   9.5988233  22.3743512
  24.6882392  10.0764738  21.6347175  24.1645825   9.5171736  21.8001805
  29.6205425  14.9574904  27.0879250  28.7903128  15.1685548  27.2512667
  29.5714677  14.1311958  26.8121534  29.4912160  14.8664510  27.0716615
  16.0556979  13.2791816  20.5153674  15.4714195  13.7841848  20.9219537
  15.6527075  13.0534203  19.7750266  15.9096283  13.3200064  20.4658699
  11.6101008  18.9946577  27.3177345  11.1268586  19.7197067  27.2936929
  12.4224326  19.2922707  27.4287503  11.6591756  19.1448931  27.3304624
  17.6815162  17.7878758  29.9227160  17.1642104  17.4286173  29.3188468
  18.3789553  17.2640932  29.9333226  17.7080743  17.6576446  29.8357418
  21.3378754  18.2373572  35.8843333  21.4262100  18.0499712  36.7321543
  21.7668467  17.5911002  35.4848179  21.4140856  18.1136580  35.9515084
  18.9049214  17.5204732  34.8660995  18.3420049  17.1077342  35.3900656
  19.6670237  17.4457638  35.2854138  18.9343662  17.4482133  35.0053995
  20.5134194   9.5257468  18.9922594  20.7530198   9.7335452  18.1797937
  20.8350035   8.7214977  19.1011539  20.5971352   9.4371569  18.8883147
  14.4645205  19.5102753  27.4697625  15.1665785  18.9954742  27.5270381
  14.3842688  19.8376905  28.2744500  14.5568966  19.4816979  27.5970417
  29.1159383   7.6045304  30.8829671  28.2787804   7.6747492  31.1177266
  29.0847614   7.6069799  30.0103974  28.9877665   7.6155532  30.7889219
  15.5124112   9.7478340  36.5978040  15.6844616   9.6384235  37.4463321
  16.0493469  10.3932746  36.3609232  15.6169116   9.8270342  36.6883137
  13.7895981  15.7009105  26.9783233  14.6284880  15.9332038  27.0256995
  13.8207750  14.8313417  26.9090268  13.9177698  15.6066052  26.9747878
  14.4148684  16.1209980  31.2796538  14.9546909  15.9781111  31.9499911
  13.7318630  16.5206731  31.6480565  14.3940838  16.1589651  31.4330960
  23.8389569  11.8000981  26.4741563  24.5947084  12.2332495  26.5130472
  23.9451893  11.1505751  27.0476199  23.9659739  11.7678465  26.5639588
  21.4498813  17.6682591  38.5487116  22.2339230  17.7813439  38.9142858
  21.2495408  16.8423728  38.7445802  21.5364839  17.5629311  38.6321502
   9.8185829  12.3410271  31.4330960   9.5524244  11.5249388  31.5921950
   9.8324393  12.3863427  30.5626476   9.7810551  12.2267176  31.3284442
  26.7967223   2.6688086  29.4673394  27.4393131   2.7386191  30.0535309
  27.0490243   2.0017309  28.9652936  26.9289355   2.5814435  29.4800673
  14.5684435   5.8788649  34.0797968  13.8756232   5.4085629  34.3258699
  15.1844763   5.6526954  34.6539675  14.5568965   5.7755781  34.2007120
  21.6069207  19.5792693  32.1953572  20.8084452  19.3392193  32.4527440
  22.0555218  19.6307086  32.9420619  21.5543818  19.5515084  32.3438496
  30.0114086  12.3455178  26.1163603  30.6730520  11.7845847  26.0159512
  29.3705498  11.8507209  26.4416294  30.0142953  12.1891587  26.1495943
  20.8990894  15.6425310  18.4244526  21.3142042  15.3110333  17.7329022
  20.0682823  15.4094212  18.2964663  20.8378902  15.5596566  18.3035374
  10.2279242  13.1269051  28.7142704  10.0454816  13.1015937  27.8614996
  10.9628911  13.5967988  28.7531613  10.3093306  13.1930413  28.5940623
  26.2978917  13.3620561  25.8575592  26.5334506  13.5065759  25.0302442
  26.4468480  14.1262969  26.2507105  26.3544720  13.4959615  25.7939196
  13.2924994   9.8454053  35.2224813  14.0164966   9.8307084  35.7089708
  13.3941131  10.5549409  34.7246781  13.4143203   9.9478757  35.2203600
  28.1269373  12.2022226  23.6945196  28.4577590  12.7349867  23.0885291
  28.7002462  12.2561114  24.3507147  28.2603053  12.2891795  23.7022977
  20.6669944  13.3253138  40.0873760  19.8742924  13.6396650  40.2726380
  20.7818871  13.5404606  39.2494545  20.5665354  13.4036975  39.9912095
  23.3401263  10.0487129  24.3768776  23.4348117  10.7876423  24.8308401
  22.7160106   9.6204605  24.8103340  23.2610293  10.0948450  24.5076923
  21.5953736  13.2273342  35.0259057  22.1692598  12.5900586  35.1807621
  21.5168540  13.2277424  34.1568714  21.6686971  13.1338453  34.9205468
  10.1950153  10.0062551  28.8641771  10.7723655   9.8699002  29.5034016
   9.4964215   9.5498335  29.1187355  10.1771174   9.9184817  28.9964061
  23.5924284  11.8935869  17.6105728  23.5104446  11.9638056  18.4760715
  24.2304004  12.4565613  17.4189468  23.6744121  11.9874840  17.7095677
  16.9517455  11.6596607  27.0780254  16.6936699  10.8268342  27.0511554
  17.0065938  11.8854220  26.2372754  16.9217233  11.5694378  26.9500391
  22.0318505   3.7625058  27.1784347  21.3274832   3.2734243  27.3368266
  22.0803479   3.7747532  26.3072791  21.9348557   3.6914706  27.0723687
  15.9252167   9.2134369  27.5645149  15.3501758   9.3726538  28.2009110
  15.5487843   8.5769779  27.1013599  15.7854979   9.1432182  27.5899707
  19.5925456   7.6857719  32.4237527  19.2039889   7.2611936  31.7689718
  18.9280154   7.9339868  32.9314554  19.4372384   7.6596440  32.4025395
  29.2348725   7.4432723  25.1985357  28.9785290   6.6312665  25.0083240
  30.0778039   7.4510291  24.9715545  29.3214750   7.3244721  25.1370174
  23.4151817   1.3832347  29.9361511  23.7962329   0.7010519  30.3229386
  22.6115102   1.0941950  29.7537176  23.3528279   1.2399396  29.9665567
  20.6964394  11.9156323  20.6214334  21.5105033  12.2071216  20.5097106
  20.6323535  11.2616186  20.0472627  20.8067133  11.8621518  20.5203172
  26.9173884  14.5982319  35.0343910  26.6812522  13.7670384  34.9155970
  27.5617113  14.5467927  35.6198754  26.9768555  14.4680007  35.1029803
  16.5672302  15.3877841  25.7486646  17.2046249  15.1489588  26.2938440
  16.9927374  15.5915000  25.0139807  16.7248469  15.3828851  25.7203804
  11.2584945  17.6266177  29.6320950  11.2989090  17.8981028  28.8040730
  11.8179469  18.1508085  30.0478738  11.3468291  17.7441932  29.5712838
  17.2075117  10.6080130  20.0861536  17.5920270  10.3887837  20.8378081
  16.9586738  11.4343076  20.2162612  17.2277190  10.6978277  20.2162612
  17.3743658   3.8886546  39.8024120  17.0597099   4.6586108  39.5393683
  17.0533590   3.3256802  39.2176347  17.2802577   3.9196814  39.6765470
  18.9493774  15.8650263  27.4280433  19.0232783  15.7025435  28.2822283
  19.7663281  16.0540453  27.1840914  19.0810133  15.8687006  27.5178458
  33.6412097  11.0219769  30.4240549  33.5736597  11.0415728  29.5543135
  33.6267759  11.8650096  30.6496219  33.6290853  11.1493504  30.3293026
  12.7099531  16.2108126  24.4574876  11.8837649  16.4569863  24.3309155
  12.7711522  16.1320207  25.3236934  12.5973698  16.2353075  24.5663821
  24.0508443   2.4254927  33.7481638  24.7962035   2.2364737  33.3345063
  23.6345748   2.9513164  33.1895494  24.0993418   2.4757072  33.6046211
  17.4898360  18.8285006  22.1593906  17.7796658  18.4373988  21.4353133
  18.2201841  19.0101711  22.5999181  17.6405244  18.7978820  22.1176713
  31.4270714   9.7964155  28.6987143  31.9778636   9.1632224  28.9384235
  31.4114830  10.3279548  29.3902647  31.5055911   9.7813103  28.8366001
  18.0793105  13.6302752  33.2447036  17.5804799  14.3418520  33.3231925
  18.8893329  13.9503419  33.2065199  18.1249212  13.7829601  33.2503605
  15.4304276  20.8052389  25.2254056  15.2104571  20.5149744  26.0180723
  15.2098798  20.1467344  24.6971968  15.3651870  20.6652097  25.2642964
  14.3421223  12.8925705  27.4909757  14.0534471  12.2663177  28.0255485
  15.2104571  12.8345993  27.5574438  14.4281475  12.7913250  27.5800712
  25.1299121   8.0360489  27.8091739  24.7863886   7.3150824  28.1598989
  25.2292163   7.8274340  26.9670097  25.0941163   7.8984692  27.7363419
  17.5972231  22.1781779  24.0084748  18.2496289  21.6458221  24.2375774
  16.8997840  21.8250431  24.3952622  17.5902949  22.0471302  24.0996916
  14.5453496  14.5320956  23.4152122  15.2999464  14.9133995  23.6287585
  13.9524109  14.9832100  23.8698819  14.5690210  14.6549784  23.5135001
  25.5912150  14.4986193  23.3515727  26.1570182  15.1579403  23.2674270
  24.9440053  14.8435891  23.8232129  25.5790906  14.6468134  23.4088484
  17.0060163   6.4883797  38.5409335  16.1959939   6.7941576  38.4299177
  17.4834850   7.2089379  38.6561919  16.9563642   6.6398398  38.5416406
  15.8651723  15.7029518  28.7892238  15.3432476  15.8429809  29.4744102
  16.2525743  14.9440182  28.9794355  15.8455424  15.6115042  28.9193314
  22.0618728  17.4424977  22.7752807  21.8205404  16.7092838  22.3679872
  22.2420061  17.9911834  22.1219140  22.0526352  17.4147368  22.6183030
  17.2918048  12.7333537  24.1873729  17.0960831  13.3408271  23.5934032
  17.5152394  12.0401481  23.7065403  17.2952689  12.7211062  24.0289810
  15.6896578   9.6188275  24.3054597  16.4119230   9.7829433  23.8458403
  15.2104571  10.3397940  24.1993937  15.7260309   9.7486504  24.2220211
  23.6490086   5.9552073  29.6851282  22.8101187   5.9813352  29.4489545
  23.7194453   6.6022809  30.2656629  23.5358479   6.0548199  29.7360399
  13.3404195  12.0246347  33.4108737  13.8525292  12.3030600  32.7617497
  13.0540538  12.7635641  33.7771550  13.3739058  12.1748701  33.3698615
  22.0959364   2.8537450  24.4178898  22.7985717   2.6545199  23.9398856
  21.8303553   2.0813393  24.7247742  22.1605997   2.7100417  24.3924340
  27.5247610  11.1620060  26.9712524  27.4381584  11.3175486  27.8247303
  27.0698090  11.8058136  26.5971929  27.4450866  11.2795815  27.0419631
  16.8587920   4.1172736  33.4709779  16.6671117   4.1327870  34.3209202
  17.7086516   4.3136410  33.4476434  16.9563642   4.1487087  33.5933073
  11.2434833   6.6463717  31.4493595  11.1020325   5.7947658  31.5738103
  11.5275397   6.6892378  30.6255801  11.2642680   6.5263467  31.3461219
  21.3973426   8.4830807  25.5938083  21.1508140   8.4026558  26.4274872
  21.7258549   7.6984275  25.4000611  21.4094669   8.3557073  25.6885606
  23.6299560  11.4910542  35.6347246  23.6247598  10.6190359  35.6389673
  24.3360554  11.6898711  35.1616702  23.7344564  11.3914416  35.5654282
  17.3570453  11.2187526  35.0061066  17.5013829  11.7988734  34.3704176
  17.7046102  11.5963823  35.7110921  17.4297914  11.3608230  35.0160061
  19.5290370  10.4177694  32.7886198  18.7813684  10.6108709  32.3834476
  19.6831896   9.5922914  32.5510319  19.4412798  10.3242806  32.6931604
  16.4298208  19.4090298  31.8722093  16.5787772  18.8493214  31.2195498
  17.2098210  19.4882299  32.2554612  16.5672302  19.3375863  31.8319042
  26.7874847  14.5492420  20.1441364  26.4081656  13.7629558  20.1370653
  26.1241093  15.0979277  20.0013008  26.6333322  14.5137244  20.1222161
  18.9551509  19.5804941  33.1506584  18.8795180  18.9113751  33.7057372
  18.8841368  20.2822729  33.6647250  18.9332116  19.5849848  33.3083432
  19.7692147   4.3128245  33.6781602  20.2264762   5.0452219  33.8054394
  19.8448476   3.8894710  34.4368858  19.8483117   4.3585483  33.8082678
  24.2419473  -2.5081880  27.5475445  24.3603042  -2.0505416  26.8142747
  24.0681649  -3.3136619  27.2611662  24.2338644  -2.5588108  27.3976378
  19.6121756  18.1005940  23.9830190  20.3771647  17.8315583  23.6612854
  19.5099846  17.6155950  24.7000253  19.7103251  17.9895504  24.0410018
  17.6474525   6.3030349  30.5223426  16.8570600   6.1221809  30.8440762
  18.0435148   5.5257302  30.5053720  17.5891402   6.1617810  30.5675974
  22.1340416  15.1318123  15.9630139  22.9013401  15.1918248  15.5535991
  21.6871725  14.5598565  15.4786458  22.1813843  15.0554699  15.8307850
  23.0318212  13.9372779  28.2482872  22.3563214  13.7058011  28.7496259
  23.0410588  13.3293962  27.6224977  22.9336716  13.8131704  28.2299024
  20.1612356   8.7790608  35.0046925  20.0971497   9.6400565  34.8767061
  20.3009543   8.4622601  34.2042476  20.1727826   8.8590775  34.8675138
  25.0334946  16.7937911  20.4793050  25.1154784  17.6004898  20.1554501
  25.5184688  16.8133871  21.2033823  25.1172104  16.9158574  20.5379948
  18.8431450  11.4722747  29.1463128  18.4193699  11.6727246  28.4102146
  18.6676305  10.6251595  29.2587427  18.7542330  11.3771529  29.0536818
  18.3443143  22.9873260  31.6084585  18.8339073  22.2884050  31.4260250
  17.7727375  22.6897130  32.1960642  18.3327673  22.8399484  31.6685626
  14.1313895  11.9674799  24.5791100  14.2878514  11.9021602  25.4347092
  14.4714488  12.7423351  24.3669780  14.2047129  12.0723997  24.6745694
  20.6693039  11.3432682  23.4484463  21.2108585  10.8403064  23.9123084
  20.9839598  11.2897877  22.6373949  20.7957436  11.2612103  23.3968275
  24.5410147  15.5535330  40.5611376  25.3545012  15.2820479  40.7216508
  24.3805113  15.2542870  39.7571571  24.6380095  15.4690256  40.4656781
  18.8379489  16.7350034  20.7324491  18.9072309  15.8764572  20.8717492
  19.6167944  16.9521915  20.4043516  18.9632339  16.6402898  20.7041649
  21.8182309   6.2368987  33.5006764  22.0324278   5.5979901  32.9470118
  21.2016208   6.6814811  33.0714626  21.7587638   6.2079131  33.3557195
  23.2286976  19.1587735  24.9460985  22.8366768  18.8554450  24.2283851
  23.3840049  19.9956825  24.7565939  23.1940566  19.2371572  24.8117482
  10.7048156   9.1509749  24.8951867  11.0847121   9.5694294  24.2312135
  10.1303521   9.7323205  25.2020711  10.6759481   9.2987608  24.8428608
  23.9821397   7.8458052  34.4390071  23.1698078   7.5383943  34.5203244
  24.4411331   7.3657052  35.0032783  23.9301781   7.7294545  34.5344665
  23.3926651  15.7237724  24.8867015  23.0341306  15.8952367  25.6631048
  22.9065362  16.1850930  24.3295014  23.2685348  15.8176695  24.9192284
  21.2097037  -0.6531077  28.4894107  20.3390595  -0.6792356  28.4427416
  21.4637378  -0.8253885  27.6719952  21.1190597  -0.6820934  28.3614243
  21.0774904   9.2518124  39.2218773  21.5474535   9.8760240  39.6086647
  21.1236784   8.5835099  39.7811988  21.1542780   9.2452804  39.3618845
  18.2346178   1.3575151  29.9467577  17.7184666   0.6655343  30.0719156
  17.6740107   2.0245928  29.8930176  18.0752691   1.3538409  29.9573643
  20.3038411   1.8968111  31.7760430  19.9170164   1.9217143  32.5573959
  19.8171348   1.3309790  31.3234946  20.1750920   1.8163862  31.8248333
  24.5531391  16.6141620  35.8334216  25.1911111  16.1201816  35.4996672
  23.9105482  16.5419021  35.2486443  24.5525617  16.5300629  35.6976571
  26.2788391   8.4630766  30.4000132  25.8515999   8.3757115  29.6448231
  25.6414444   8.5708542  30.9854976  26.1217998   8.4663426  30.3745573
  19.9695553  -1.2164903  34.0670689  20.5988671  -0.6804603  33.7891760
  20.1381416  -1.3087544  34.9184255  20.0873347  -1.1503541  34.1519218
  19.7709468   3.5706291  36.3397101  20.5982897   3.2991440  36.3955716
  19.7917314   4.3667133  36.6960919  19.8962318   3.6486046  36.4012284
  14.3478958  10.7170154  29.5267362  13.5066964  10.6174028  29.7346256
  14.5568966  11.4865634  29.8781682  14.2543650  10.8162197  29.6094677
  11.8254525   8.3389691  27.3552112  11.4311222   8.4132703  26.5802222
  11.2694641   8.7247637  27.9060474  11.6857337   8.4071466  27.3219772
  23.4619471   1.3170985  27.0355991  23.6669065   1.2493293  27.8812988
  23.1345895   2.1229806  26.9677169  23.4434719   1.4256925  27.1515646
  18.1595622   8.6451553  28.7764959  17.8558760   8.0907542  29.3775367
  17.4575043   8.8243763  28.2892993  18.0111832   8.5896336  28.7934665
  17.2161720   5.9552073  23.3409661  17.4921454   5.2370986  22.9287229
  17.8160389   6.5536993  23.1330767  17.3454984   5.9372444  23.2490422
  16.2213973  15.8601274  33.4837057  16.1134328  15.8703336  34.3499115
  16.4309755  16.6856054  33.2942011  16.2364085  15.9842349  33.5841149
  26.7153159   1.8702749  26.5158757  26.1027473   2.3573151  26.9012489
  26.8117334   1.1946240  27.0596408  26.6391057   1.8421058  26.6537615
  14.2387765  13.1113916  30.9458995  13.6475699  13.7523415  30.9162010
  15.0008789  13.5351534  30.9190294  14.2636026  13.2689755  30.9374142
  14.6348388   4.2715914  31.6127012  15.0949870   4.3454844  32.3502136
  14.6804495   5.0697168  31.2626834  14.7098944   4.4010061  31.6699769
  16.2831738   4.9382609  36.1799039  15.8917303   4.2915956  36.6154817
  16.4517601   5.5294044  36.7993295  16.2502648   4.9296877  36.3361745
  30.3578187  12.9419686  31.9436273  30.4161311  13.3906335  32.6896249
  29.7244655  13.3518499  31.5066353  30.2729482  13.0693421  31.9888821
  18.0585260  10.3308125  22.7201263  18.8027305  10.7182401  22.9584213
  18.2045956   9.4865550  22.8841751  18.1895845  10.2638598  22.7795233
  19.9764836   2.1258384  27.7533125  19.1300881   2.2981191  27.6274475
  19.9735968   1.3207727  28.0898953  19.8511985   2.0319413  27.7844252
  21.0463136   5.9033598  28.6195183  20.5723090   5.3775360  29.1300494
  21.4181272   5.3563071  28.0510044  21.0313025   5.7449595  28.6110330
  11.4236166   7.9005105  33.9878728  12.2861779   7.8000814  33.9016058
  11.0927949   7.3199814  33.4264301  11.5021362   7.7996732  33.8924134
  27.3099866  10.9635974  30.0301963  27.0698089  10.1242389  30.0344390
  27.7891874  11.0436140  30.7542737  27.3452050  10.8517373  30.1376766
  22.9746636   6.7970153  21.6820937  22.4469654   6.8798897  20.9926645
  23.4342344   7.5388024  21.6785581  22.9648486   6.9190815  21.5795632
  29.3105054   7.7437431  27.9831222  29.0714823   7.7033265  27.1452007
  29.4738955   8.5908583  28.1096943  29.2995357   7.8629516  27.8784704
  25.9151084  12.1287380  33.9136267  26.6385283  11.6759907  33.7347287
  25.6501046  12.4092046  33.1308595  25.9832357  12.1038349  33.7714983
  14.7837952   6.7247554  30.6489147  14.1591022   6.7365946  30.0415099
  14.4483547   7.2007729  31.2980387  14.6423444   6.7966071  30.6545715
  11.4963628  14.7848014  32.0892911  10.9663552  14.0940453  32.1387886
  11.7688721  14.7758199  31.2605619  11.4588350  14.6815146  31.9740327
  22.5283718  15.3673716  20.8130594  23.2517917  15.8331829  20.6695167
  22.0884309  15.4347326  20.0628191  22.5699410  15.4457553  20.6815375
  21.6969873  12.2271258  32.0631283  21.0826866  11.6829309  32.3579918
  22.2137158  11.7135495  31.5837099  21.6825536  12.0707668  32.0355511
  20.9366170  13.2975529  29.7975581  20.5093778  12.6725247  29.3641017
  20.9291115  13.0150450  30.6234588  20.8725311  13.1628309  29.8555409
  14.0528697   8.3340702  32.8664015  14.2122184   7.5784026  33.2715737
  13.8721591   8.8831641  33.5204753  14.0494056   8.3034515  33.0226721
  21.9949000   0.5001937  33.4214805  21.4989562   0.6965611  32.7306371
  22.7518062   0.8994605  33.2503606  22.0335825   0.5879671  33.2934941
  19.2651880   4.1744283  30.0118115  19.2894367   3.6404395  29.3230895
  19.5163354   3.6661592  30.6743706  19.3061799   4.0205187  30.0082760
   6.7759470  11.4575778  29.4461259   6.6702919  11.4122622  28.5813343
   6.0259690  11.8029559  29.7275544   6.6495073  11.5016686  29.3598589
  15.5453202   2.9015101  29.3923859  15.5851574   3.4024308  30.1058567
  14.7202867   2.9925495  29.1229783  15.4292728   2.9896918  29.4574398
  17.7282815  12.4675841  37.4944154  16.8778446  12.6047556  37.6301799
  17.8910943  11.7339620  37.9391856  17.6266679  12.3789943  37.5799753
  16.9667566   9.4175611  31.6897759  16.1359495   9.5849429  31.4833007
  16.9119083   9.0411562  32.4746644  16.8356980   9.3865342  31.7746287
  15.3403609   7.6931203  22.2187876  15.4806571   8.1903667  22.9216518
  15.8386142   6.9917497  22.3602090  15.4344690   7.6633181  22.3439455
  28.3486398  11.0913791  32.4166817  28.9404238  11.7311042  32.4485015
  28.7845392  10.3936828  32.7058884  28.5004829  11.0832141  32.4647650
  20.1779787  15.5131163  33.0424711  19.6704879  16.0667010  33.4865342
  19.8806434  15.5739453  32.2243486  20.0584672  15.6037475  32.9873168
  22.3441970   3.8784483  31.8849374  22.7697041   3.4257010  31.2732901
  21.7298963   3.3244554  32.1614162  22.3170615   3.7298459  31.8354399
  11.8756820  10.7566154  22.8169999  12.3849049  11.3530662  23.1981305
  12.3491092  10.4892128  22.1346419  12.0200195  10.8051970  22.7724522
  22.7887568  19.4294421  20.9728655  22.0716877  19.2555283  20.5075892
  23.4394305  19.1946993  20.4404141  22.7789418  19.3690214  20.8257873
  20.7836193   0.3499583  25.2939951  20.1404510   0.1997229  25.8625090
  20.4435599   0.1041928  24.5289056  20.6381270   0.2911705  25.2642966
  25.3735539   8.3059010  24.7169960  24.7026729   8.8488712  24.5883025
  26.0675289   8.7753865  24.4751655  25.3764406   8.4557281  24.6625487
  19.4222273  20.4455722  29.9481718  19.1987927  19.6874551  30.3165744
  18.9332116  20.4753743  29.2262158  19.3165722  20.3377946  29.8958459
  25.5363666   4.7614893  27.6260333  25.8891277   4.3344616  28.3006132
  24.6778468   4.6765737  27.7561409  25.4613111   4.6859634  27.7455343
  14.2347351   7.3922413  25.6843179  13.5159341   7.8086546  25.9516043
  14.6059714   7.9576652  25.1334818  14.1839283   7.5371694  25.6425986
  23.5346932   8.0250262  31.5745175  23.5144860   7.8433557  32.4279954
  23.5826133   8.8962280  31.5504759  23.5381573   8.1266800  31.6968470
  21.4793262  14.6137454  37.4993652  21.4389117  13.9687131  36.9138808
  22.2916580  14.5574071  37.8119064  21.5936416  14.5096421  37.4590601
  18.0700730  20.6656180  27.4018803  17.6561128  20.0030310  27.0122644
  18.7548104  20.8134039  26.8814497  18.1099101  20.5896838  27.2675300
  21.4366024  19.8246265  28.1542419  21.0382307  19.9348535  27.3863239
  20.8217243  20.0328331  28.7368979  21.2864913  19.8719833  28.1273719
  26.9687727  -0.1166695  28.5544645  26.4618591  -0.8237555  28.4865823
  27.7655160  -0.4473506  28.6845722  27.0114966  -0.2693543  28.5643640
  22.8851742   6.3899917  24.4518309  22.6565435   6.4132619  23.6096667
  23.1449819   5.5657384  24.5713320  22.8897930   6.2715997  24.3443507
  17.1670971   8.2434390  34.0543409  16.6549874   7.6355573  34.4128441
  16.9950467   8.9590983  34.5217385  17.0660608   8.2597690  34.1759633
  12.0136686   6.6871966  36.7045771  11.8439276   7.3473341  36.1593978
  11.5702635   6.8978527  37.4258260  11.9236019   6.8157948  36.7307401
  15.9396505   4.9276464  25.7472505  16.4153871   5.2893544  25.1122686
  15.4385105   5.5832931  26.0272648  15.9361864   5.0770652  25.6949246
  29.1707866  14.3998232  21.5385510  29.5541472  15.1489588  21.7683607
  28.3751980  14.6464051  21.2797499  29.1101649  14.5467926  21.5343083
  21.0440041   6.1658635  36.4945665  21.6011471   5.9372445  35.8624130
  20.7201106   6.9264301  36.2180877  21.0786451   6.2442472  36.3602162
   8.9138750   9.5918831  31.9634261   8.3665469   8.9219477  32.0815129
   9.7031128   9.2248679  32.0277728   8.9490934   9.4383818  31.9902962
  18.7623158   9.2526288  37.4597672  19.5134485   9.5677965  37.7737226
  18.9545735   9.0505459  36.6331594  18.9014573   9.2693670  37.3841068
  25.6108449   5.3799855  24.7021467  25.6102675   5.2248511  25.5605744
  25.4064629   6.2262842  24.6462853  25.5808226   5.4820475  24.8209407
   7.6725720   8.8039639  29.1180284   7.4947481   8.3516248  29.8435200
   7.3844742   9.6065801  29.3018762   7.6038673   8.8562197  29.2523787
  23.3349301  10.0597357  28.3557674  23.8302966   9.3420352  28.3161695
  22.5249076   9.7568154  28.2412161  23.2893194   9.9095003  28.3331400
  18.7807912  13.9095170  20.5054679  17.9719235  13.5861843  20.4587988
  19.2882821  13.2028392  20.4382927  18.7357579  13.7576486  20.4884973
   9.4098189  11.3367363  26.2302043   8.5443709  11.3253053  26.1184814
   9.5097005  11.1497586  27.0773182   9.2972356  11.3073424  26.3390988
  25.4001119  12.8101044  31.0434803  25.8256191  12.2875466  30.4905228
  25.0358039  13.4081881  30.5223426  25.4087722  12.8211271  30.8843813
  15.0355199  21.1065262  29.8032149  15.3501758  21.9201650  29.8109930
  15.4448613  20.7215480  30.4714308  15.1423297  21.1693964  29.9036240
  21.9879719  16.5235308  27.3735961  22.4590897  17.2375571  27.5425946
  22.3239897  15.9234058  27.9095830  22.1074834  16.5406773  27.4768336
  24.0756704  18.1336622  39.5528033  24.1853669  17.3445182  39.9084780
  24.4047600  18.0442558  38.7502371  24.1409109  18.0042475  39.4870423
  18.9049214   1.2962779  34.3294055  19.0377119   0.4993772  34.6575031
  19.2894367   1.8229182  34.9092331  18.9805543   1.2562696  34.4637558
  22.6253665  16.3153242  34.1363653  22.0774611  15.6911126  33.8683719
  23.0866694  16.5047514  33.4207733  22.6120875  16.2512293  33.9914084
  21.9781569  -1.7806895  30.9275149  21.1727533  -1.8909165  31.2442987
  21.8488305  -1.6794439  30.0705014  21.8401702  -1.7823225  30.8483189
  25.4347530   4.3838597  31.5214846  24.8510518   4.8847803  31.1092413
  25.7551824   3.8768153  30.8879169  25.3960705   4.3830432  31.3673353
  16.5637661   1.2921954  32.5771949  17.1082074   0.9513081  33.1676291
  16.6174596   2.1507415  32.7193234  16.6526780   1.3677213  32.6853823
  12.3768219  15.0538370  29.4510757  12.9813077  15.0134204  28.8224578
  12.1695532  15.9009522  29.4814813  12.4357117  15.1726372  29.3626874
  22.1911992  17.3204315  30.6672994  23.0110365  17.1767281  30.9289290
  21.9106069  17.9450514  31.2089432  22.2708735  17.3914667  30.7860934
   7.6119502  14.0372988  29.3209680   7.5143780  13.2269259  29.6299737
   8.3948371  14.0164781  28.9355948   7.7135638  13.9140078  29.3096543
  26.2466466  33.6007536  24.1506033  25.4949366  33.2223074  23.9222078
  26.6952478  33.6325969  23.4024843  26.2016133  33.5493143  24.0063535
  31.6991426  34.0232905  19.5791580  31.3642795  34.7009827  19.1435802
  32.2118297  33.6338216  18.9908452  31.7257007  34.0657483  19.4278371
  31.2395718  35.9747174  25.5202691  31.6235097  36.5434073  24.9807467
  31.1754859  35.2496684  25.0408507  31.2869145  35.9522637  25.3696554
  27.8251223  33.6125928  26.4168805  27.9261586  32.8026282  26.7265933
  27.2292968  33.5182874  25.7868484  27.7523761  33.4790956  26.3695044
  27.6651962  38.5303517  27.8183661  28.3089418  38.9716681  28.2079820
  27.9908218  37.7256943  27.7313920  27.8083791  38.4768712  27.8629139
  21.0216267  29.6346214  26.0421139  20.7866451  28.8013867  25.9353408
  21.1601908  29.9150880  25.2282340  21.0071929  29.5529718  25.9063494
  23.3206354  21.8031945  28.9405447  22.7011386  21.2124592  28.7715461
  23.2190218  22.3943380  28.3069770  23.2144030  21.8036028  28.8210436
  28.3672542  31.5415492  23.1903523  28.6888383  32.0820699  22.5864831
  29.0144638  30.9712263  23.3225813  28.5098597  31.5374667  23.1210558
  30.4174250  23.5431487  23.2737910  31.1154415  23.7219614  23.7659373
  30.7326583  23.0201826  22.6508299  30.5669587  23.4925259  23.2539920
  23.0475487  25.3484227  31.1849016  22.9234184  25.9346672  31.8198834
  23.6993772  24.8544422  31.4861291  23.1249137  25.3623031  31.3234945
  30.6062185  29.9301932  23.2617701  31.0455821  29.3219032  23.7072474
  30.4566848  29.5509305  22.4903166  30.6483651  29.7840403  23.2136869
  34.2071522  28.2829113  20.2148470  34.1222817  29.1390080  20.3598039
  34.6955905  28.0073437  20.8830630  34.2660419  28.3686435  20.3350552
  35.7977521  14.9009406  25.6008795  35.4830962  15.5912885  26.0329217
  35.2804463  14.8454189  24.8994296  35.6741992  14.9944295  25.5605744
  27.0289563  28.7977124  20.5153674  26.4446778  29.3027155  20.9219537
  26.6259658  28.5719511  19.7750266  26.8828867  28.8385372  20.4658699
  22.5833592  34.5131885  27.3177345  22.1001170  35.2382375  27.2936929
  23.3956910  34.8108015  27.4287503  22.6324339  34.6634239  27.3304624
  31.4866777  25.0442776  18.9922594  31.7262781  25.2520760  18.1797937
  31.8082618  24.2400285  19.1011539  31.5703935  24.9556877  18.8883147
  26.7957068  16.9736172  22.8382132  27.5503036  17.3414489  22.5999182
  26.6184602  17.3475726  23.6061312  26.8811546  17.0834360  22.9167021
  25.4377789  35.0288061  27.4697625  26.1398368  34.5140050  27.5270381
  25.3575272  35.3562212  28.2744500  25.5301549  35.0002287  27.5970417
  25.1514132  19.3806491  19.5360245  24.9689706  19.5978372  18.7101238
  26.0139745  19.4945504  19.5918860  25.2518722  19.4296389  19.4214732
  24.7628564  31.2194413  26.9783233  25.6017464  31.4517346  27.0256995
  24.7940333  30.3498725  26.9090268  24.8910282  31.1251360  26.9747878
  30.8313852  16.3832902  22.5709269  31.5600012  16.2048857  22.1247425
  30.9208744  17.2250981  22.7816447  30.9520514  16.4816780  22.5362787
  20.7918412  27.8595579  31.4330960  20.5256828  27.0434696  31.5921950
  20.8056977  27.9048735  30.5626476  20.7543135  27.7452484  31.3284442
  24.6976159  22.6580664  18.0482718  23.9834336  22.3718843  18.4605151
  25.1820128  22.9977289  18.6889106  24.6635523  22.6662313  18.2038353
  31.8723477  31.1610617  18.4244526  32.2874626  30.8295641  17.7329022
  31.0415407  30.9279520  18.2964663  31.8111486  31.0781873  18.3035374
  21.2011826  28.6454359  28.7142704  21.0187399  28.6201245  27.8614996
  21.9361495  29.1153296  28.7531613  21.2825890  28.7115721  28.5940623
  21.1682736  25.5247859  28.8641771  21.7456239  25.3884310  29.5034016
  20.4696798  25.0683643  29.1187355  21.1503758  25.4370125  28.9964061
  34.5656867  27.4121177  17.6105728  34.4837030  27.4823364  18.4760715
  35.2036588  27.9750921  17.4189468  34.6476705  27.5060148  17.7095677
  16.6441570  24.3759752  25.5789589  16.7301821  23.9991620  26.3603119
  17.2717367  24.0020198  25.1009548  16.7498121  24.2645234  25.6235067
  31.6696978  27.4341631  20.6214334  32.4837616  27.7256524  20.5097106
  31.6056119  26.7801494  20.0472627  31.7799717  27.3806826  20.5203172
  27.5404886  30.9063149  25.7486646  28.1778833  30.6674896  26.2938440
  27.9659957  31.1100308  25.0139807  27.6981052  30.9014159  25.7203804
  22.2317528  33.1451485  29.6320950  22.2721674  33.4166336  28.8040730
  22.7912052  33.6693393  30.0478738  22.3200874  33.2627240  29.5712838
  28.1807701  26.1265438  20.0861536  28.5652854  25.9073145  20.8378081
  27.9319321  26.9528384  20.2162612  28.2009773  26.2163585  20.2162612
  23.6832115  31.7293434  24.4574876  22.8570232  31.9755171  24.3309155
  23.7444106  31.6505515  25.3236934  23.5706281  31.7538383  24.5663821
  28.4630944  34.3470314  22.1593906  28.7529242  33.9559296  21.4353133
  29.1934424  34.5287019  22.5999181  28.6137828  34.3164128  22.1176713
  26.4036859  36.3237697  25.2254056  26.1837155  36.0335051  26.0180723
  26.1831381  35.6652652  24.6971968  26.3384453  36.1837405  25.2642964
  25.3153806  28.4111013  27.4909757  25.0267055  27.7848485  28.0255485
  26.1837154  28.3531301  27.5574438  25.4014058  28.3098558  27.5800712
  28.5704815  37.6967087  24.0084748  29.2228873  37.1643529  24.2375774
  27.8730424  37.3435739  24.3952622  28.5635533  37.5656610  24.0996916
  25.5186080  30.0506264  23.4152122  26.2732048  30.4319303  23.6287585
  24.9256692  30.5017408  23.8698819  25.5422793  30.1735092  23.5135001
  26.8384306  31.2214826  28.7892238  26.3165060  31.3615117  29.4744102
  27.2258327  30.4625490  28.9794355  26.8188007  31.1300349  28.9193314
  23.8275490  21.2720634  22.8587192  23.5400286  20.9021905  22.1219140
  24.5145959  21.7415490  22.5970897  23.8864388  21.2867604  22.7102268
  33.0351311  32.9610285  22.7752807  32.7937987  32.2278146  22.3679872
  33.2152644  33.5097142  22.1219140  33.0258935  32.9332676  22.6183030
  33.0691948  18.3722758  24.4178898  33.7718301  18.1730507  23.9398856
  32.8036137  17.5998701  24.7247742  33.1338580  18.2285724  24.3924340
  21.4003685  22.0501847  23.7072474  21.5019821  22.8528008  24.0353449
  22.1959572  21.8489183  23.4095554  21.5331591  22.1387746  23.7107829
  22.2167417  22.1649025  31.4493595  22.0752909  21.3132966  31.5738103
  22.5007980  22.2077686  30.6255801  22.2375263  22.0448775  31.3461219
  27.4030792  34.9275606  31.8722093  27.5520355  34.3678522  31.2195498
  28.1830794  35.0067607  32.2554612  27.5404885  34.8561171  31.8319042
  37.7607431  30.0677728  20.1441364  37.3814240  29.2814866  20.1370653
  37.0973676  30.6164585  20.0013008  37.6065906  30.0322552  20.1222161
  29.9284092  35.0990249  33.1506584  29.8527763  34.4299059  33.7057372
  29.8573951  35.8008037  33.6647250  29.9064699  35.1035156  33.3083432
  22.9857722  20.0779373  34.7671045  22.4499912  19.4659731  35.0831813
  23.0475487  20.6527509  35.4204712  22.9153355  20.0726300  34.9106472
  35.2152057  13.0103428  27.5475445  35.3335625  13.4679891  26.8142747
  35.0414233  12.2048689  27.2611662  35.2071228  12.9597200  27.3976378
  30.5854339  33.6191247  23.9830190  31.3504230  33.3500891  23.6612854
  30.4832429  33.1341258  24.7000253  30.6835835  33.5080812  24.0410018
  33.1073000  30.6503431  15.9630139  33.8745985  30.7103556  15.5535991
  32.6604309  30.0783873  15.4786458  33.1546427  30.5740007  15.8307850
  36.0067530  32.3123219  20.4793050  36.0887367  33.1190206  20.1554501
  36.4917272  32.3319179  21.2033823  36.0904688  32.4343882  20.5379948
  29.3175727  38.5058568  31.6084585  29.8071657  37.8069358  31.4260250
  28.7459959  38.2082438  32.1960642  29.3060257  38.3584792  31.6685626
  25.1046478  27.4860107  24.5791100  25.2611097  27.4206910  25.4347092
  25.4447071  28.2608659  24.3669780  25.1779713  27.5909305  24.6745694
  29.8112072  32.2535342  20.7324491  29.8804893  31.3949880  20.8717492
  30.5900528  32.4707223  20.4043516  29.9364923  32.1588206  20.7041649
  34.2019560  34.6773043  24.9460985  33.8099352  34.3739758  24.2283851
  34.3572632  35.5142133  24.7565939  34.1673150  34.7556880  24.8117482
  21.6780740  24.6695057  24.8951867  22.0579704  25.0879602  24.2312135
  21.1036104  25.2508513  25.2020711  21.6492064  24.8172916  24.8428608
  32.1829621  14.8654231  28.4894107  31.3123179  14.8392952  28.4427416
  32.4369962  14.6931423  27.6719952  32.0923181  14.8364374  28.3614243
  29.1547600  26.9222197  17.4267250  29.4440125  27.6987080  17.7010824
  29.2419399  26.4110929  18.1281749  29.2101856  26.9614116  17.5709747
  30.9428136  14.3020405  34.0670689  31.5721254  14.8380705  33.7891760
  31.1113999  14.2097763  34.9184255  31.0605931  14.3681767  34.1519218
  25.3211541  26.2355462  29.5267362  24.4799548  26.1359336  29.7346256
  25.5301549  27.0050942  29.8781682  25.2276234  26.3347505  29.6094677
  22.7987108  23.8574999  27.3552112  22.4043806  23.9318011  26.5802222
  22.2427225  24.2432945  27.9060474  22.6589920  23.9256774  27.3219772
  28.1894303  21.4737381  23.3409661  28.4654037  20.7556294  22.9287229
  28.7892972  22.0722301  23.1330767  28.3187568  21.4557752  23.2490422
  31.6904824  19.1450898  21.6156256  32.1448570  19.3161459  22.3404101
  32.1644869  18.5319009  21.2154032  31.8273144  19.0801784  21.6630018
  29.0317844  25.8493433  22.7201263  29.7759889  26.2367709  22.9584213
  29.1778540  25.0050858  22.8841751  29.1628429  25.7823906  22.7795233
  22.3968750  23.4190413  33.9878728  23.2594363  23.3186122  33.9016058
  22.0660533  22.8385122  33.4264301  22.4753946  23.3182039  33.8924134
  33.9479219  22.3155461  21.6820937  33.4202238  22.3984205  20.9926645
  34.4074927  23.0573332  21.6785581  33.9381070  22.4376123  21.5795632
  25.9412284  20.5857980  16.7061832  25.5925089  21.2377705  17.1693381
  25.4608730  20.5715093  15.9785703  25.8182528  20.6801034  16.6672923
  22.4696211  30.3033322  32.0892911  21.9396136  29.6125761  32.1387886
  22.7421304  30.2943507  31.2605619  22.4320933  30.2000454  31.9740327
  33.5016302  30.8859024  20.8130594  34.2250501  31.3517137  20.6695167
  33.0616893  30.9532634  20.0628191  33.5431994  30.9642861  20.6815375
  25.0261281  23.8526010  32.8664015  25.1854768  23.0969334  33.2715737
  24.8454175  24.4016949  33.5204753  25.0226640  23.8219823  33.0226721
  32.9681584  16.0187245  33.4214805  32.4722145  16.2150919  32.7306371
  33.7250646  16.4179913  33.2503606  33.0068409  16.1064979  33.2934941
  17.7492053  26.9761086  29.4461259  17.6435502  26.9307930  28.5813343
  16.9992273  27.3214867  29.7275544  17.6227656  27.0201994  29.3598589
  26.3136193  23.2116511  22.2187876  26.4539154  23.7088975  22.9216518
  26.8118726  22.5102805  22.3602090  26.4077274  23.1818489  22.3439455
  26.3436415  24.0783622  19.5480453  26.9781495  24.6744047  19.4829915
  26.4262026  23.7787079  20.3626323  26.4492966  24.1224530  19.6583540
  27.9215398  20.0097597  19.5225895  28.2431239  19.5300680  18.8685157
  28.1842342  20.8197243  19.3316707  28.0081424  20.0587495  19.3981387
  22.8489403  26.2751462  22.8169999  23.3581633  26.8715970  23.1981305
  23.3223676  26.0077436  22.1346419  22.9932779  26.3237278  22.7724522
  33.7620151  34.9479729  20.9728655  33.0449461  34.7740591  20.5075892
  34.4126889  34.7132301  20.4404141  33.7522002  34.8875522  20.8257873
  31.7568776  15.8684891  25.2939951  31.1137094  15.7182537  25.8625090
  31.4168183  15.6227236  24.5289056  31.6113853  15.8097013  25.2642966
  30.3954856  35.9641030  29.9481718  30.1720511  35.2059859  30.3165744
  29.9064700  35.9939051  29.2262158  30.2898305  35.8563254  29.8958459
  25.2079935  22.9107721  25.6843179  24.4891924  23.3271854  25.9516043
  25.5792297  23.4761960  25.1334818  25.1571867  23.0557002  25.6425986
  29.0433313  36.1841488  27.4018803  28.6293712  35.5215618  27.0122644
  29.7280687  36.3319347  26.8814497  29.0831685  36.1082146  27.2675300
  30.9826509  21.9505721  21.0216559  30.3891349  22.2722717  20.4701126
  31.0201787  21.1046816  20.8137665  30.9000898  21.8730049  20.9099330
  37.9420310  15.4018613  28.5544645  37.4351175  14.6947753  28.4865823
  38.7387744  15.0711802  28.6845722  37.9847549  15.2491764  28.5643640
  22.9869269  22.2057274  36.7045771  22.8171859  22.8658649  36.1593978
  22.5435219  22.4163835  37.4258260  22.8968603  22.3343256  36.7307401
  19.8871334  25.1104139  31.9634261  19.3398053  24.4404785  32.0815129
  20.6763712  24.7433987  32.0277728  19.9223517  24.9569126  31.9902962
  28.9555742  22.5902971  19.1145889  29.3354706  22.6082601  18.3297004
  28.2148338  23.0356960  18.9936736  28.9024579  22.6584746  18.9809457
  18.6458303  24.3224947  29.1180284  18.4680064  23.8701556  29.8435200
  18.3577325  25.1251108  29.3018762  18.5771256  24.3747505  29.2523787
  29.7540496  29.4280478  20.5054679  28.9451818  29.1047151  20.4587988
  30.2615405  28.7213700  20.4382927  29.7090162  29.2761794  20.4884973
  20.3830773  26.8552671  26.2302043  19.5176292  26.8438361  26.1184814
  20.4829589  26.6682894  27.0773182  20.2704940  26.8258732  26.3390988
  26.0087783  36.6250569  29.8032149  26.3234342  37.4386958  29.8109930
  26.4181196  36.2400788  30.4714308  26.1155881  36.6879272  29.9036240
  32.9514153  13.7378413  30.9275149  32.1460116  13.6276143  31.2442987
  32.8220888  13.8390869  30.0705014  32.8134285  13.7362083  30.8483189
  28.9474912  18.8164500  21.7973520  29.7690607  18.9862813  21.5555215
  28.4844563  18.9711761  21.0739818  29.0006075  18.8646233  21.6545165
  23.3500803  30.5723678  29.4510757  23.9545660  30.5319512  28.8224578
  23.1428116  31.4194830  29.4814813  23.4089700  30.6911680  29.3626874
  18.5852085  29.5558295  29.3209680  18.4876363  28.7454567  29.6299737
  19.3680955  29.5350089  28.9355948  18.6868222  29.4325386  29.3096543
  49.6358226  40.4954475  23.6315871  49.6052230  41.3499111  23.8034140
  50.2339574  40.1949767  24.1902014  49.7195383  40.5770971  23.7390673
  37.2199050  49.1192844  24.1506033  36.4681950  48.7408382  23.9222078
  37.6685062  49.1511277  23.4024843  37.1748717  49.0678451  24.0063535
  42.6724010  49.5418213  19.5791580  42.3375378  50.2195135  19.1435802
  43.1850880  49.1523524  18.9908452  42.6989591  49.5842791  19.4278371
  42.2128301  51.4932482  25.5202691  42.5967681  52.0619380  24.9807467
  42.1487442  50.7681992  25.0408507  42.2601728  51.4707945  25.3696554
  38.7983806  49.1311236  26.4168805  38.8994169  48.3211590  26.7265933
  38.2025551  49.0368182  25.7868484  38.7256345  48.9976264  26.3695044
  47.4574800  43.0706777  21.9034181  47.3414326  43.8214463  22.3326319
  48.2530687  42.8130730  22.1530268  47.5579389  43.1441624  22.0038272
  38.6384546  54.0488825  27.8183661  39.2822001  54.4901989  28.2079820
  38.9640801  53.2442251  27.7313920  38.7816375  53.9954020  27.8629139
  31.9948851  45.1531522  26.0421139  31.7599035  44.3199175  25.9353408
  32.1334491  45.4336188  25.2282340  31.9804513  45.0715026  25.9063494
  39.3405126  47.0600800  23.1903523  39.6620967  47.6006007  22.5864831
  39.9877222  46.4897571  23.3225813  39.4831181  47.0559975  23.1210558
  41.5794769  45.4487240  23.2617701  42.0188404  44.8404340  23.7072474
  41.4299432  45.0694613  22.4903166  41.6216235  45.3025711  23.2136869
  45.1804106  43.8014421  20.2148470  45.0955401  44.6575388  20.3598039
  45.6688489  43.5258745  20.8830630  45.2393003  43.8871742  20.3350552
  46.7710105  30.4194714  25.6008795  46.4563546  31.1098193  26.0329217
  46.2537047  30.3639497  24.8994296  46.6474575  30.5129603  25.5605744
  46.1122539  40.4199215  21.7146206  45.5834010  40.6358849  22.3743512
  46.6347559  41.1135354  21.6347175  46.1110992  40.5542352  21.8001805
  38.0022147  44.3162432  20.5153674  37.4179362  44.8212463  20.9219537
  37.5992242  44.0904819  19.7750266  37.8561450  44.3570680  20.4658699
  33.5566175  50.0317193  27.3177345  33.0733753  50.7567683  27.2936929
  34.3689493  50.3293323  27.4287503  33.6056923  50.1819547  27.3304624
  42.4599361  40.5628084  18.9922594  42.6995365  40.7706068  18.1797937
  42.7815202  39.7585593  19.1011539  42.5436519  40.4742185  18.8883147
  36.4110372  50.5473369  27.4697625  37.1130952  50.0325358  27.5270381
  36.3307856  50.8747520  28.2744500  36.5034133  50.5187595  27.5970417
  36.1246716  34.8991799  19.5360245  35.9422289  35.1163680  18.7101238
  36.9872329  35.0130812  19.5918860  36.2251305  34.9481697  19.4214732
  35.7361148  46.7379721  26.9783233  36.5750047  46.9702654  27.0256995
  35.7672917  45.8684032  26.9090268  35.8642865  46.6436667  26.9747878
  45.7854736  42.8371597  26.4741563  46.5412251  43.2703111  26.5130472
  45.8917060  42.1876367  27.0476199  45.9124906  42.8049081  26.5639588
  31.7650996  43.3780887  31.4330960  31.4989411  42.5620004  31.5921950
  31.7789560  43.4234043  30.5626476  31.7275718  43.2637792  31.3284442
  35.6708743  38.1765971  18.0482718  34.9566920  37.8904151  18.4605151
  36.1552712  38.5162597  18.6889106  35.6368106  38.1847621  18.2038353
  42.8456061  46.6795925  18.4244526  43.2607209  46.3480949  17.7329022
  42.0147990  46.4464828  18.2964663  42.7844070  46.5967181  18.3035374
  32.1744410  44.1639666  28.7142704  31.9919983  44.1386552  27.8614996
  32.9094079  44.6338604  28.7531613  32.2558474  44.2301029  28.5940623
  48.2444084  44.3991176  25.8575592  48.4799673  44.5436375  25.0302442
  48.3933647  45.1633584  26.2507105  48.3009887  44.5330231  25.7939196
  50.0734541  43.2392842  23.6945196  50.4042758  43.7720482  23.0885291
  50.6467629  43.2931730  24.3507147  50.2068220  43.3262411  23.7022977
  32.1415320  41.0433167  28.8641771  32.7188823  40.9069618  29.5034016
  31.4429382  40.5868951  29.1187355  32.1236341  40.9555433  28.9964061
  45.5389451  42.9306485  17.6105728  45.4569614  43.0008672  18.4760715
  46.1769171  43.4936229  17.4189468  45.6209288  43.0245456  17.7095677
  38.8982622  42.6967223  27.0780254  38.6401866  41.8638958  27.0511554
  38.9531105  42.9224836  26.2372754  38.8682400  42.6064994  26.9500391
  37.8717334  40.2504985  27.5645149  37.2966926  40.4097154  28.2009110
  37.4953011  39.6140394  27.1013599  37.7320147  40.1802798  27.5899707
  51.1813892  38.4803339  25.1985357  50.9250457  37.6683281  25.0083240
  52.0243206  38.4880906  24.9715545  51.2679917  38.3615337  25.1370174
  27.6174153  39.8945060  25.5789589  27.7034405  39.5176928  26.3603119
  28.2449951  39.5205506  25.1009548  27.7230704  39.7830542  25.6235067
  42.6429561  42.9526939  20.6214334  43.4570200  43.2441832  20.5097106
  42.5788702  42.2986801  20.0472627  42.7532300  42.8992134  20.5203172
  38.5137469  46.4248457  25.7486646  39.1511416  46.1860204  26.2938440
  38.9392541  46.6285616  25.0139807  38.6713636  46.4199467  25.7203804
  33.2050112  48.6636793  29.6320950  33.2454257  48.9351644  28.8040730
  33.7644636  49.1878701  30.0478738  33.2933458  48.7812548  29.5712838
  39.1540284  41.6450746  20.0861536  39.5385437  41.4258453  20.8378081
  38.9051905  42.4713692  20.2162612  39.1742357  41.7348893  20.2162612
  40.8958941  46.9020879  27.4280433  40.9697950  46.7396051  28.2822283
  41.7128448  47.0911069  27.1840914  41.0275300  46.9057622  27.5178458
  34.6564698  47.2478742  24.4574876  33.8302816  47.4940479  24.3309155
  34.7176689  47.1690823  25.3236934  34.5438865  47.2723691  24.5663821
  39.4363527  49.8655622  22.1593906  39.7261826  49.4744604  21.4353133
  40.1667008  50.0472327  22.5999181  39.5870411  49.8349436  22.1176713
  37.3769443  51.8423005  25.2254056  37.1569738  51.5520359  26.0180723
  37.1563965  51.1837960  24.6971968  37.3117037  51.7022713  25.2642964
  36.2886390  43.9296321  27.4909757  35.9999639  43.3033792  28.0255485
  37.1569738  43.8716609  27.5574438  36.3746642  43.8283865  27.5800712
  39.5437398  53.2152395  24.0084748  40.1961456  52.6828837  24.2375774
  38.8463007  52.8621047  24.3952622  39.5368116  53.0841918  24.0996916
  36.4918663  45.5691572  23.4152122  37.2464631  45.9504611  23.6287585
  35.8989276  46.0202716  23.8698819  36.5155377  45.6920400  23.5135001
  47.5377317  45.5356809  23.3515727  48.1035349  46.1950019  23.2674270
  46.8905220  45.8806507  23.8232129  47.5256073  45.6838750  23.4088484
  34.8008074  36.7905942  22.8587192  34.5132870  36.4207213  22.1219140
  35.4878542  37.2600798  22.5970897  34.8596971  36.8052912  22.7102268
  44.0083895  48.4795593  22.7752807  43.7670571  47.7463454  22.3679872
  44.1885228  49.0282450  22.1219140  43.9991519  48.4517984  22.6183030
  39.2383215  43.7704153  24.1873729  39.0425998  44.3778887  23.5934032
  39.4617561  43.0772097  23.7065403  39.2417857  43.7581678  24.0289810
  37.6361745  40.6558891  24.3054597  38.3584397  40.8200049  23.8458403
  37.1569738  41.3768555  24.1993937  37.6725476  40.7857120  24.2220211
  49.4712777  42.1990676  26.9712524  49.3846751  42.3546102  27.8247303
  49.0163257  42.8428752  26.5971929  49.3916034  42.3166431  27.0419631
  32.3736269  37.5687155  23.7072474  32.4752405  38.3713316  24.0353449
  33.1692155  37.3674491  23.4095554  32.5064174  37.6573054  23.7107829
  41.4755538  41.4548310  32.7886198  40.7278852  41.6479325  32.3834476
  41.6297063  40.6293530  32.5510319  41.3877965  41.3613422  32.6931604
  48.7340015  45.5863036  20.1441364  48.3546823  44.8000174  20.1370653
  48.0706260  46.1349893  20.0013008  48.5798489  45.5507860  20.1222161
  41.5586923  49.1376555  23.9830190  42.3236814  48.8686199  23.6612854
  41.4565013  48.6526566  24.7000253  41.6568418  49.0266120  24.0410018
  44.0805583  46.1688739  15.9630139  44.8478568  46.2288864  15.5535991
  43.6336892  45.5969181  15.4786458  44.1279011  46.0925315  15.8307850
  42.1077523  39.8161224  35.0046925  42.0436664  40.6771180  34.8767061
  42.2474711  39.4993217  34.2042476  42.1192993  39.8961391  34.8675138
  46.9800113  47.8308527  20.4793050  47.0619951  48.6375514  20.1554501
  47.4649856  47.8504487  21.2033823  47.0637271  47.9529190  20.5379948
  40.7896617  42.5093363  29.1463128  40.3658866  42.7097862  28.4102146
  40.6141472  41.6622211  29.2587427  40.7007497  42.4142145  29.0536818
  36.0779062  43.0045415  24.5791100  36.2343681  42.9392218  25.4347092
  36.4179655  43.7793967  24.3669780  36.1512297  43.1094613  24.6745694
  42.6158206  42.3803298  23.4484463  43.1573752  41.8773679  23.9123084
  42.9304765  42.3268493  22.6373949  42.7422603  42.2982719  23.3968275
  40.7844656  47.7720650  20.7324491  40.8537476  46.9135188  20.8717492
  41.5633111  47.9892531  20.4043516  40.9097506  47.6773514  20.7041649
  45.1752144  50.1958351  24.9460985  44.7831935  49.8925066  24.2283851
  45.3305216  51.0327441  24.7565939  45.1405733  50.2742188  24.8117482
  32.6513323  40.1880365  24.8951867  33.0312288  40.6064910  24.2312135
  32.0768688  40.7693821  25.2020711  32.6224648  40.3358224  24.8428608
  45.3391818  46.7608340  24.8867015  44.9806473  46.9322983  25.6631048
  44.8530529  47.2221546  24.3295014  45.2150515  46.8547311  24.9192284
  40.1280184  42.4407505  17.4267250  40.4172709  43.2172388  17.7010824
  40.2151983  41.9296237  18.1281749  40.1834440  42.4799424  17.5709747
  33.7719692  39.3760307  27.3552112  33.3776389  39.4503319  26.5802222
  33.2159809  39.7618253  27.9060474  33.6322504  39.4442081  27.3219772
  40.1060790  39.6822169  28.7764959  39.8023927  39.1278157  29.3775367
  39.4040210  39.8614379  28.2892993  39.9576999  39.6266951  28.7934665
  39.1626887  36.9922689  23.3409661  39.4386621  36.2741601  22.9287229
  39.7625556  37.5907609  23.1330767  39.2920151  36.9743060  23.2490422
  40.0050427  41.3678741  22.7201263  40.7492472  41.7553017  22.9584213
  40.1511123  40.5236166  22.8841751  40.1361012  41.3009213  22.7795233
  44.9211803  37.8340769  21.6820937  44.3934821  37.9169513  20.9926645
  45.3807511  38.5758640  21.6785581  44.9113653  37.9561431  21.5795632
  36.9144868  36.1043288  16.7061832  36.5657672  36.7563013  17.1693381
  36.4341314  36.0900401  15.9785703  36.7915112  36.1986342  16.6672923
  44.4748885  46.4044332  20.8130594  45.1983084  46.8702445  20.6695167
  44.0349476  46.4717942  20.0628191  44.5164577  46.4828169  20.6815375
  28.7224637  42.4946394  29.4461259  28.6168086  42.4493238  28.5813343
  27.9724857  42.8400174  29.7275544  28.5960240  42.5387302  29.3598589
  38.9132733  40.4546227  31.6897759  38.0824662  40.6220045  31.4833007
  38.8584250  40.0782178  32.4746644  38.7822148  40.4235958  31.7746287
  37.2868777  38.7301819  22.2187876  37.4271738  39.2274283  22.9216518
  37.7851309  38.0288113  22.3602090  37.3809857  38.7003797  22.3439455
  37.3168999  39.5968930  19.5480453  37.9514078  40.1929355  19.4829915
  37.3994610  39.2972387  20.3626323  37.4225550  39.6409838  19.6583540
  38.8947982  35.5282905  19.5225895  39.2163823  35.0485987  18.8685157
  39.1574926  36.3382551  19.3316707  38.9814007  35.5772803  19.3981387
  33.8221987  41.7936770  22.8169999  34.3314216  42.3901278  23.1981305
  34.2956259  41.5262744  22.1346419  33.9665363  41.8422586  22.7724522
  44.7352735  50.4665037  20.9728655  44.0182045  50.2925899  20.5075892
  45.3859472  50.2317609  20.4404141  44.7254585  50.4060830  20.8257873
  36.1812519  38.4293029  25.6843179  35.4624508  38.8457161  25.9516043
  36.5524881  38.9947268  25.1334818  36.1304450  38.5742310  25.6425986
  40.0165897  51.7026796  27.4018803  39.6026295  51.0400926  27.0122644
  40.7013271  51.8504654  26.8814497  40.0564269  51.6267454  27.2675300
  43.3831191  50.8616881  28.1542419  42.9847474  50.9719151  27.3863239
  42.7682411  51.0698947  28.7368979  43.2330080  50.9090449  28.1273719
  41.9559093  37.4691029  21.0216559  41.3623932  37.7908025  20.4701126
  41.9934371  36.6232124  20.8137665  41.8733482  37.3915357  20.9099330
  51.1173034  45.4368848  21.5385510  51.5006639  46.1860204  21.7683607
  50.3217147  45.6834667  21.2797499  51.0566816  45.5838542  21.5343083
  30.8603917  40.6289447  31.9634261  30.3130637  39.9590093  32.0815129
  31.6496295  40.2619295  32.0277728  30.8956101  40.4754434  31.9902962
  39.9288325  38.1088279  19.1145889  40.3087290  38.1267909  18.3297004
  39.1880921  38.5542268  18.9936736  39.8757163  38.1770054  18.9809457
  29.6190887  39.8410255  29.1180284  29.4412648  39.3886864  29.8435200
  29.3309909  40.6436416  29.3018762  29.5503840  39.8932813  29.2523787
  40.7273079  44.9465786  20.5054679  39.9184402  44.6232459  20.4587988
  41.2347988  44.2399008  20.4382927  40.6822746  44.7947102  20.4884973
  31.3563357  42.3737979  26.2302043  30.4908876  42.3623669  26.1184814
  31.4562172  42.1868202  27.0773182  31.2437524  42.3444040  26.3390988
  36.9820366  52.1435877  29.8032149  37.2966925  52.9572266  29.8109930
  37.3913780  51.7586096  30.4714308  37.0888464  52.2064580  29.9036240
  39.9207496  34.3349808  21.7973520  40.7423190  34.5048120  21.5555215
  39.4577147  34.4897069  21.0739818  39.9738658  34.3831541  21.6545165
  29.5584669  45.0743603  29.3209680  29.4608947  44.2639875  29.6299737
  30.3413539  45.0535397  28.9355948  29.6600805  44.9510694  29.3096543
  60.6090809  56.0139783  23.6315871  60.5784813  56.8684419  23.8034140
  61.2072158  55.7135075  24.1902014  60.6927967  56.0956279  23.7390673
  48.1931634  64.6378152  24.1506033  47.4414533  64.2593690  23.9222078
  48.6417645  64.6696585  23.4024843  48.1481300  64.5863759  24.0063535
  53.6456594  65.0603521  19.5791580  53.3107962  65.7380443  19.1435802
  54.1583464  64.6708832  18.9908452  53.6722175  65.1028099  19.4278371
  53.1860885  67.0117790  25.5202691  53.5700264  67.5804688  24.9807467
  53.1220026  66.2867300  25.0408507  53.2334312  66.9893253  25.3696554
  49.7716390  64.6496544  26.4168805  49.8726753  63.8396898  26.7265933
  49.1758135  64.5553490  25.7868484  49.6988928  64.5161572  26.3695044
  58.4307384  58.5892085  21.9034181  58.3146910  59.3399771  22.3326319
  59.2263270  58.3316038  22.1530268  58.5311973  58.6626932  22.0038272
  49.6117129  69.5674133  27.8183661  50.2554585  70.0087297  28.2079820
  49.9373385  68.7627559  27.7313920  49.7548958  69.5139328  27.8629139
  42.9681434  60.6716830  26.0421139  42.7331619  59.8384483  25.9353408
  43.1067075  60.9521496  25.2282340  42.9537097  60.5900334  25.9063494
  50.3137709  62.5786108  23.1903523  50.6353550  63.1191315  22.5864831
  50.9609806  62.0082879  23.3225813  50.4563764  62.5745283  23.1210558
  52.3639417  54.5802103  23.2737910  53.0619582  54.7590230  23.7659373
  52.6791750  54.0572442  22.6508299  52.5134754  54.5295875  23.2539920
  52.5527353  60.9672548  23.2617701  52.9920988  60.3589648  23.7072474
  52.4032015  60.5879921  22.4903166  52.5948818  60.8211019  23.2136869
  50.5366281  49.9494499  27.3559184  50.2069611  50.4005643  26.6862883
  49.8611283  49.8710663  27.9032191  50.3876717  50.0045635  27.3382408
  56.1536689  59.3199729  20.2148470  56.0687984  60.1760696  20.3598039
  56.6421072  59.0444053  20.8830630  56.2125586  59.4057050  20.3350552
  57.7442689  45.9380022  25.6008795  57.4296130  46.6283501  26.0329217
  57.2269630  45.8824804  24.8994296  57.6207159  46.0314911  25.5605744
  57.0855122  55.9384523  21.7146206  56.5566594  56.1544157  22.3743512
  57.6080142  56.6320662  21.6347175  57.0843575  56.0727660  21.8001805
  62.5403175  61.5130828  27.0879250  61.7100878  61.7241471  27.2512667
  62.4912428  60.6867882  26.8121534  62.4109911  61.4220434  27.0716615
  48.9754730  59.8347740  20.5153674  48.3911945  60.3397771  20.9219537
  48.5724825  59.6090127  19.7750266  48.8294034  59.8755988  20.4658699
  44.5298759  65.5502501  27.3177345  44.0466337  66.2752991  27.2936929
  45.3422077  65.8478631  27.4287503  44.5789506  65.7004855  27.3304624
  53.4331945  56.0813392  18.9922594  53.6727948  56.2891376  18.1797937
  53.7547786  55.2770901  19.1011539  53.5169102  55.9927493  18.8883147
  48.7422235  48.0106788  22.8382132  49.4968203  48.3785105  22.5999182
  48.5649769  48.3846342  23.6061312  48.8276713  48.1204976  22.9167021
  47.3842956  66.0658677  27.4697625  48.0863535  65.5510666  27.5270381
  47.3040439  66.3932828  28.2744500  47.4766716  66.0372903  27.5970417
  47.0979299  50.4177107  19.5360245  46.9154873  50.6348988  18.7101238
  47.9604912  50.5316119  19.5918860  47.1983889  50.4667005  19.4214732
  46.7093731  62.2565029  26.9783233  47.5482631  62.4887962  27.0256995
  46.7405501  61.3869340  26.9090268  46.8375449  62.1621975  26.9747878
  52.7779019  47.4203517  22.5709269  53.5065179  47.2419472  22.1247425
  52.8673912  48.2621597  22.7816447  52.8985681  47.5187396  22.5362787
  56.7587319  58.3556905  26.4741563  57.5144834  58.7888419  26.5130472
  56.8649644  57.7061675  27.0476199  56.8857490  58.3234389  26.5639588
  59.7967490  62.1830182  27.2243966  59.3602722  62.1866924  27.9802937
  59.4630406  62.8635681  26.7923543  59.6830110  62.2842638  27.2724798
  59.7164973  49.2244010  29.4673394  60.3590882  49.2942114  30.0535309
  59.9687994  48.5573233  28.9652936  59.8487105  49.1370359  29.4800673
  46.6441327  53.6951279  18.0482718  45.9299504  53.4089459  18.4605151
  47.1285295  54.0347905  18.6889106  46.6100690  53.7032929  18.2038353
  54.5266957  66.1348617  32.1953572  53.7282203  65.8948117  32.4527440
  54.9752969  66.1863010  32.9420619  54.4741569  66.1071008  32.3438496
  62.9311837  58.9011102  26.1163603  63.5928271  58.3401770  26.0159512
  62.2903249  58.4063133  26.4416294  62.9340704  58.7447511  26.1495943
  53.8188644  62.1981233  18.4244526  54.2339793  61.8666257  17.7329022
  52.9880574  61.9650136  18.2964663  53.7576653  62.1152489  18.3035374
  43.1476993  59.6824974  28.7142704  42.9652566  59.6571860  27.8614996
  43.8826662  60.1523912  28.7531613  43.2291057  59.7486337  28.5940623
  59.2176667  59.9176484  25.8575592  59.4532257  60.0621683  25.0302442
  59.3666231  60.6818892  26.2507105  59.2742471  60.0515539  25.7939196
  61.0467124  58.7578150  23.6945196  61.3775341  59.2905790  23.0885291
  61.6200212  58.8117038  24.3507147  61.1800803  58.8447719  23.7022977
  56.2599013  56.6043053  24.3768776  56.3545868  57.3432347  24.8308401
  55.6357857  56.1760528  24.8103340  56.1808043  56.6504374  24.5076923
  43.1147904  56.5618475  28.8641771  43.6921406  56.4254926  29.5034016
  42.4161965  56.1054259  29.1187355  43.0968925  56.4740741  28.9964061
  56.5122035  58.4491793  17.6105728  56.4302197  58.5193980  18.4760715
  57.1501755  59.0121537  17.4189468  56.5941872  58.5430764  17.7095677
  49.8715206  58.2152531  27.0780254  49.6134450  57.3824266  27.0511554
  49.9263689  58.4410144  26.2372754  49.8414984  58.1250302  26.9500391
  48.8449918  55.7690293  27.5645149  48.2699509  55.9282462  28.2009110
  48.4685594  55.1325702  27.1013599  48.7052730  55.6988106  27.5899707
  62.1546476  53.9988647  25.1985357  61.8983040  53.1868589  25.0083240
  62.9975790  54.0066214  24.9715545  62.2412501  53.8800645  25.1370174
  38.5906737  55.4130368  25.5789589  38.6766989  55.0362236  26.3603119
  39.2182534  55.0390814  25.1009548  38.6963288  55.3015850  25.6235067
  53.6162145  58.4712247  20.6214334  54.4302784  58.7627140  20.5097106
  53.5521286  57.8172109  20.0472627  53.7264884  58.4177442  20.5203172
  49.4870053  61.9433765  25.7486646  50.1244000  61.7045512  26.2938440
  49.9125125  62.1470923  25.0139807  49.6446219  61.9384775  25.7203804
  44.1782695  64.1822101  29.6320950  44.2186841  64.4536952  28.8040730
  44.7377219  64.7064009  30.0478738  44.2666041  64.2997856  29.5712838
  50.1272868  57.1636054  20.0861536  50.5118021  56.9443761  20.8378081
  49.8784488  57.9899000  20.2162612  50.1474941  57.2534201  20.2162612
  51.8691525  62.4206187  27.4280433  51.9430533  62.2581359  28.2822283
  52.6861031  62.6096377  27.1840914  52.0007884  62.4242929  27.5178458
  66.5609848  57.5775693  30.4240549  66.4934348  57.5971652  29.5543135
  66.5465510  58.4206020  30.6496219  66.5488604  57.7049427  30.3293026
  45.6297282  62.7664050  24.4574876  44.8035399  63.0125787  24.3309155
  45.6909273  62.6876131  25.3236934  45.5171449  62.7908999  24.5663821
  47.8473305  48.8332991  25.4170316  46.9795731  48.9055590  25.4827925
  48.1348510  49.6355070  25.6058291  47.7613054  48.9627138  25.4545083
  50.4096111  65.3840930  22.1593906  50.6994409  64.9929912  21.4353133
  51.1399592  65.5657635  22.5999181  50.5602995  65.3534744  22.1176713
  64.3468465  56.3520079  28.6987143  64.8976387  55.7188148  28.9384235
  64.3312580  56.8835472  29.3902647  64.4253661  56.3369027  28.8366001
  48.3502026  67.3608313  25.2254056  48.1302322  67.0705667  26.0180723
  48.1296548  66.7023268  24.6971968  48.2849620  67.2208021  25.2642964
  47.2618973  59.4481629  27.4909757  46.9732222  58.8219100  28.0255485
  48.1302322  59.3901917  27.5574438  47.3479225  59.3469173  27.5800712
  50.5169982  68.7337703  24.0084748  51.1694040  68.2014145  24.2375774
  49.8195591  68.3806355  24.3952622  50.5100700  68.6027226  24.0996916
  47.4651247  61.0876880  23.4152122  48.2197215  61.4689919  23.6287585
  46.8721860  61.5388024  23.8698819  47.4887960  61.2105708  23.5135001
  58.5109900  61.0542117  23.3515727  59.0767933  61.7135326  23.2674270
  57.8637804  61.3991815  23.8232129  58.4988657  61.2024058  23.4088484
  45.7740657  52.3091250  22.8587192  45.4865453  51.9392521  22.1219140
  46.4611126  52.7786106  22.5970897  45.8329555  52.3238220  22.7102268
  54.9816478  63.9980901  22.7752807  54.7403154  63.2648761  22.3679872
  55.1617811  64.5467758  22.1219140  54.9724102  63.9703292  22.6183030
  50.2115799  59.2889461  24.1873729  50.0158582  59.8964195  23.5934032
  50.4350145  58.5957405  23.7065403  50.2150440  59.2766986  24.0289810
  48.6094329  56.1744198  24.3054597  49.3316981  56.3385357  23.8458403
  48.1302322  56.8953863  24.1993937  48.6458060  56.3042428  24.2220211
  55.0157115  49.4093374  24.4178898  55.7183468  49.2101123  23.9398856
  54.7501304  48.6369317  24.7247742  55.0803747  49.2656340  24.3924340
  60.4445361  57.7175984  26.9712524  60.3579335  57.8731410  27.8247303
  59.9895840  58.3614060  26.5971929  60.3648617  57.8351739  27.0419631
  43.3468852  53.0872463  23.7072474  43.4484989  53.8898624  24.0353449
  44.1424739  52.8859799  23.4095554  43.4796758  53.1758362  23.7107829
  59.7072598  61.1048344  20.1441364  59.3279407  60.3185482  20.1370653
  59.0438844  61.6535201  20.0013008  59.5531073  61.0693168  20.1222161
  52.5319506  64.6561863  23.9830190  53.2969397  64.3871507  23.6612854
  52.4297596  64.1711874  24.7000253  52.6301002  64.5451428  24.0410018
  55.0538167  61.6874047  15.9630139  55.8211152  61.7474172  15.5535991
  54.6069476  61.1154488  15.4786458  55.1011594  61.6110623  15.8307850
  57.9532697  63.3493835  20.4793050  58.0352534  64.1560821  20.1554501
  58.4382439  63.3689795  21.2033823  58.0369855  63.4714498  20.5379948
  51.2640894  69.5429184  31.6084585  51.7536824  68.8439973  31.4260250
  50.6925126  69.2453054  32.1960642  51.2525424  69.3955408  31.6685626
  47.0511645  58.5230723  24.5791100  47.2076264  58.4577525  25.4347092
  47.3912238  59.2979275  24.3669780  47.1244880  58.6279921  24.6745694
  53.5890790  57.8988606  23.4484463  54.1306335  57.3958987  23.9123084
  53.9037349  57.8453801  22.6373949  53.7155187  57.8168027  23.3968275
  51.7577240  63.2905958  20.7324491  51.8270060  62.4320496  20.8717492
  52.5365695  63.5077839  20.4043516  51.8830090  63.1958822  20.7041649
  56.1484727  65.7143659  24.9460985  55.7564519  65.4110374  24.2283851
  56.3037799  66.5512749  24.7565939  56.1138317  65.7927496  24.8117482
  43.6245907  55.7065673  24.8951867  44.0044872  56.1250218  24.2312135
  43.0501272  56.2879129  25.2020711  43.5957232  55.8543532  24.8428608
  56.3124402  62.2793648  24.8867015  55.9539057  62.4508291  25.6631048
  55.8263113  62.7406854  24.3295014  56.1883099  62.3732619  24.9192284
  51.1012767  57.9592813  17.4267250  51.3905292  58.7357696  17.7010824
  51.1884566  57.4481545  18.1281749  51.1567024  57.9984732  17.5709747
  57.5283398  63.8617352  32.4739573  58.3175776  63.5106417  32.5941655
  57.7026996  64.6753741  32.2116207  57.6703680  63.9303209  32.4527441
  47.2676708  57.2726078  29.5267362  46.4264715  57.1729952  29.7346256
  47.4766716  58.0421558  29.8781682  47.1741401  57.3718121  29.6094677
  44.7452275  54.8945615  27.3552112  44.3508973  54.9688627  26.5802222
  44.1892392  55.2803561  27.9060474  44.6055088  54.9627389  27.3219772
  50.1359470  52.5107997  23.3409661  50.4119205  51.7926909  22.9287229
  50.7358140  53.1092917  23.1330767  50.2652735  52.4928368  23.2490422
  59.6350910  48.4258673  26.5158757  59.0225223  48.9129075  26.9012489
  59.7315085  47.7502164  27.0596408  59.5588807  48.3976982  26.6537615
  53.6369991  50.1821514  21.6156256  54.0913737  50.3532075  22.3404101
  54.1110037  49.5689625  21.2154032  53.7738311  50.1172399  21.6630018
  63.2775938  59.4975610  31.9436273  63.3359061  59.9462259  32.6896249
  62.6442405  59.9074423  31.5066353  63.1927233  59.6249345  31.9888821
  56.9175032  65.1179152  28.3791019  56.7194721  65.6069966  27.6847230
  56.2962743  65.3220393  28.9575152  56.7962597  65.2195690  28.3614242
  50.9783011  56.8864049  22.7201263  51.7225056  57.2738325  22.9584213
  51.1243707  56.0421474  22.8841751  51.1093596  56.8194521  22.7795233
  55.8944386  53.3526076  21.6820937  55.3667405  53.4354820  20.9926645
  56.3540094  54.0943948  21.6785581  55.8846237  53.4746739  21.5795632
  62.2302804  54.2993355  27.9831222  61.9912574  54.2589189  27.1452007
  62.3936705  55.1464507  28.1096943  62.2193108  54.4185440  27.8784704
  47.8877451  51.6228596  16.7061832  47.5390256  52.2748321  17.1693381
  47.4073897  51.6085709  15.9785703  47.7647695  51.7171650  16.6672923
  55.4481469  61.9229640  20.8130594  56.1715668  62.3887753  20.6695167
  55.0082060  61.9903250  20.0628191  55.4897161  62.0013477  20.6815375
  39.6957221  58.0131702  29.4461259  39.5900670  57.9678546  28.5813343
  38.9457441  58.3585482  29.7275544  39.5692823  58.0572610  29.3598589
  48.2601360  54.2487126  22.2187876  48.4004321  54.7459591  22.9216518
  48.7583893  53.5473421  22.3602090  48.3542441  54.2189105  22.3439455
  48.2901583  55.1154238  19.5480453  48.9246662  55.7114663  19.4829915
  48.3727193  54.8157695  20.3626323  48.3958134  55.1595146  19.6583540
  49.8680565  51.0468213  19.5225895  50.1896406  50.5671295  18.8685157
  50.1307509  51.8567859  19.3316707  49.9546591  51.0958111  19.3981387
  44.7954570  57.3122078  22.8169999  45.3046800  57.9086586  23.1981305
  45.2688843  57.0448052  22.1346419  44.9397946  57.3607894  22.7724522
  55.7085318  65.9850345  20.9728655  54.9914628  65.8111207  20.5075892
  56.3592056  65.7502917  20.4404141  55.6987169  65.9246137  20.8257873
  58.2933290  54.8614933  24.7169960  57.6224480  55.4044636  24.5883025
  58.9873040  55.3309789  24.4751655  58.2962157  55.0113205  24.6625487
  52.3420023  67.0011645  29.9481718  52.1185678  66.2430475  30.3165744
  51.8529867  67.0309667  29.2262158  52.2363472  66.8933870  29.8958459
  47.1545102  53.9478337  25.6843179  46.4357091  54.3642469  25.9516043
  47.5257464  54.5132576  25.1334818  47.1037034  54.0927618  25.6425986
  50.9898480  67.2212104  27.4018803  50.5758879  66.5586234  27.0122644
  51.6745855  67.3689962  26.8814497  51.0296852  67.1452762  27.2675300
  54.3563775  66.3802189  28.1542419  53.9580058  66.4904459  27.3863239
  53.7414994  66.5884255  28.7368979  54.2062664  66.4275757  28.1273719
  52.9291677  52.9876337  21.0216559  52.3356516  53.3093333  20.4701126
  52.9666954  52.1417432  20.8137665  52.8466066  52.9100665  20.9099330
  59.8885477  46.4389229  28.5544645  59.3816342  45.7318369  28.4865823
  60.6852911  46.1082418  28.6845722  59.9312716  46.2862380  28.5643640
  48.8594256  51.4832388  25.7472505  49.3351622  51.8449467  25.1122686
  48.3582855  52.1388855  26.0272648  48.8559615  51.6326576  25.6949246
  62.0905617  60.9554156  21.5385510  62.4739223  61.7045512  21.7683607
  61.2949731  61.2019975  21.2797499  62.0299399  61.1023849  21.5343083
  50.9020909  53.6273587  19.1145889  51.2819874  53.6453216  18.3297004
  50.1613505  54.0727576  18.9936736  50.8489747  53.6955362  18.9809457
  58.5306199  51.9355779  24.7021467  58.5300426  51.7804435  25.5605744
  58.3262379  52.7818766  24.6462853  58.5005977  52.0376399  24.8209407
  40.5923470  55.3595563  29.1180284  40.4145231  54.9072172  29.8435200
  40.3042492  56.1621724  29.3018762  40.5236423  55.4118121  29.2523787
  51.7005663  60.4651094  20.5054679  50.8916986  60.1417767  20.4587988
  52.2080572  59.7584316  20.4382927  51.6555330  60.3132410  20.4884973
  42.3295940  57.8923287  26.2302043  41.4641460  57.8808977  26.1184814
  42.4294756  57.7053510  27.0773182  42.2170107  57.8629348  26.3390988
  47.9552950  67.6621185  29.8032149  48.2699509  68.4757574  29.8109930
  48.3646363  67.2771404  30.4714308  48.0621048  67.7249888  29.9036240
  54.9077470  63.0791232  27.3735961  55.3788648  63.7931495  27.5425946
  55.2437648  62.4789982  27.9095830  55.0272585  63.0962696  27.4768336
  50.8940079  49.8535116  21.7973520  51.7155774  50.0233428  21.5555215
  50.4309730  50.0082376  21.0739818  50.9471242  49.9016848  21.6545165
  45.2965970  61.6094294  29.4510757  45.9010828  61.5690128  28.8224578
  45.0893283  62.4565446  29.4814813  45.3554867  61.7282296  29.3626874
  55.1109742  63.8760239  30.6672994  55.9308116  63.7323205  30.9289290
  54.8303820  64.5006438  31.2089432  55.1906486  63.9470591  30.7860934
  40.5317252  60.5928911  29.3209680  40.4341530  59.7825183  29.6299737
  41.3146122  60.5720705  28.9355948  40.6333389  60.4696001  29.3096543
  71.5823393  71.5325091  23.6315871  71.5517397  72.3869727  23.8034140
  72.1804741  71.2320383  24.1902014  71.6660551  71.6141587  23.7390673
  64.7823078  70.6200742  28.3868801  63.9260973  70.7809240  28.4377918
  64.8290731  69.7492806  28.4073862  64.6622189  70.5151544  28.3974867
  59.1664217  80.1563459  24.1506033  58.4147117  79.7778998  23.9222078
  59.6150229  80.1881893  23.4024843  59.1213884  80.1049067  24.0063535
  68.0916794  76.8887267  37.9929257  68.7983561  76.3939298  38.1216192
  68.2804729  77.3296349  37.2631915  68.2244700  76.8805618  37.9038303
  64.1593468  82.5303098  25.5202691  64.5432848  83.0989996  24.9807467
  64.0952610  81.8052608  25.0408507  64.2066896  82.5078561  25.3696554
  67.6274899  72.6792786  31.0300453  68.1730859  73.3577872  31.0894423
  67.5691775  72.5380246  30.1702034  67.6990813  72.7584787  30.9112513
  60.7448973  80.1681852  26.4168805  60.8459336  79.3582206  26.7265933
  60.1490719  80.0738798  25.7868484  60.6721512  80.0346880  26.3695044
  69.4039967  74.1077393  21.9034181  69.2879493  74.8585079  22.3326319
  70.1995854  73.8501346  22.1530268  69.5044557  74.1812240  22.0038272
  60.5849713  85.0859441  27.8183661  61.2287168  85.5272605  28.2079820
  60.9105969  84.2812867  27.7313920  60.7281542  85.0324636  27.8629139
  53.9414018  76.1902138  26.0421139  53.7064202  75.3569791  25.9353408
  54.0799658  76.4706804  25.2282340  53.9269680  76.1085642  25.9063494
  56.2404105  68.3587869  28.9405447  55.6209137  67.7680516  28.7715461
  56.1387969  68.9499304  28.3069770  56.1341781  68.3591951  28.8210436
  61.2870293  78.0971416  23.1903523  61.6086134  78.6376623  22.5864831
  61.9342389  77.5268187  23.3225813  61.4296348  78.0930591  23.1210558
  63.3372001  70.0987411  23.2737910  64.0352165  70.2775538  23.7659373
  63.6524333  69.5757750  22.6508299  63.4867338  70.0481183  23.2539920
  55.9673238  71.9040151  31.1849016  55.8431935  72.4902596  31.8198834
  56.6191523  71.4100346  31.4861291  56.0446887  71.9178955  31.3234945
  63.5259936  76.4857856  23.2617701  63.9653572  75.8774956  23.7072474
  63.3764599  76.1065229  22.4903166  63.5681402  76.3396327  23.2136869
  60.9931579  75.0801867  30.4636527  61.6380582  74.5874311  30.1447475
  61.2333356  75.2226654  31.2902605  61.1242164  75.0279310  30.5386060
  63.5317671  77.9256773  30.1143419  63.8140913  77.1308179  29.8930175
  64.2603831  78.4037361  30.1348480  63.6807234  77.8791370  30.0846434
  61.5098864  65.4679807  27.3559184  61.1802194  65.9190951  26.6862883
  60.8343866  65.3895971  27.9032191  61.3609301  65.5230942  27.3382408
  68.7175272  61.4565330  25.6008795  68.4028713  62.1468809  26.0329217
  68.2002214  61.4010112  24.8994296  68.5939743  61.5500219  25.5605744
  68.0587706  71.4569831  21.7146206  67.5299177  71.6729465  22.3743512
  68.5812726  72.1505970  21.6347175  68.0576159  71.5912968  21.8001805
  59.9487314  75.3533048  20.5153674  59.3644529  75.8583079  20.9219537
  59.5457409  75.1275435  19.7750266  59.8026618  75.3941296  20.4658699
  55.5031342  81.0687809  27.3177345  55.0198921  81.7938299  27.2936929
  56.3154661  81.3663939  27.4287503  55.5522090  81.2190163  27.3304624
  61.5745496  79.8619990  29.9227160  61.0572438  79.5027405  29.3188468
  62.2719888  79.3382164  29.9333226  61.6011078  79.7317678  29.8357418
  65.2309088  80.3114804  35.8843333  65.3192434  80.1240944  36.7321543
  65.6598801  79.6652233  35.4848179  65.3071191  80.1877811  35.9515084
  62.7979548  79.5945964  34.8660995  62.2350383  79.1818574  35.3900656
  63.5600572  79.5198869  35.2854138  62.8273997  79.5223364  35.0053995
  59.7154818  63.5292096  22.8382132  60.4700786  63.8970413  22.5999182
  59.5382353  63.9031650  23.6061312  59.8009297  63.6390284  22.9167021
  58.3575540  81.5843985  27.4697625  59.0596119  81.0695974  27.5270381
  58.2773023  81.9118136  28.2744500  58.4499300  81.5558211  27.5970417
  73.0089717  69.6786536  30.8829671  72.1718138  69.7488723  31.1177266
  72.9777948  69.6811031  30.0103974  72.8808000  69.6896763  30.7889219
  59.4054446  71.8219572  36.5978040  59.5774950  71.7125466  37.4463321
  59.9423804  72.4673977  36.3609232  59.5099450  71.9011574  36.6883137
  58.0711883  65.9362415  19.5360245  57.8887456  66.1534296  18.7101238
  58.9337496  66.0501427  19.5918860  58.1716473  65.9852313  19.4214732
  57.6826315  77.7750337  26.9783233  58.5215214  78.0073270  27.0256995
  57.7138084  76.9054648  26.9090268  57.8108033  77.6807283  26.9747878
  58.3079018  78.1951212  31.2796538  58.8477243  78.0522343  31.9499911
  57.6248964  78.5947963  31.6480565  58.2871172  78.2330883  31.4330960
  63.7511602  62.9388825  22.5709269  64.4797763  62.7604780  22.1247425
  63.8406495  63.7806905  22.7816447  63.8718264  63.0372704  22.5362787
  67.7319903  73.8742213  26.4741563  68.4877418  74.3073727  26.5130472
  67.8382227  73.2246982  27.0476199  67.8590074  73.8419697  26.5639588
  70.7700074  77.7015490  27.2243966  70.3335306  77.7052232  27.9802937
  70.4362990  78.3820989  26.7923543  70.6562694  77.8027946  27.2724798
  65.3429148  79.7423823  38.5487116  66.1269564  79.8554671  38.9142858
  65.1425742  78.9164960  38.7445802  65.4295173  79.6370542  38.6321502
  53.7116163  74.4151503  31.4330960  53.4454578  73.5990620  31.5921950
  53.7254727  74.4604658  30.5626476  53.6740885  74.3008408  31.3284442
  70.6897557  64.7429318  29.4673394  71.3323465  64.8127422  30.0535309
  70.9420578  64.0758541  28.9652936  70.8219689  64.6555666  29.4800673
  57.6173910  69.2136587  18.0482718  56.9032087  68.9274767  18.4605151
  58.1017879  69.5533213  18.6889106  57.5833273  69.2218237  18.2038353
  58.4614769  67.9529881  34.0797968  57.7686566  67.4826861  34.3258699
  59.0775097  67.7268186  34.6539675  58.4499299  67.8497013  34.2007120
  65.4999541  81.6533925  32.1953572  64.7014787  81.4133425  32.4527440
  65.9485553  81.7048318  32.9420619  65.4474152  81.6256316  32.3438496
  73.9044420  74.4196410  26.1163603  74.5660854  73.8587078  26.0159512
  73.2635832  73.9248441  26.4416294  73.9073288  74.2632819  26.1495943
  54.1209577  75.2010282  28.7142704  53.9385150  75.1757168  27.8614996
  54.8559246  75.6709220  28.7531613  54.2023641  75.2671645  28.5940623
  70.1909251  75.4361792  25.8575592  70.4264840  75.5806991  25.0302442
  70.3398815  76.2004200  26.2507105  70.2475054  75.5700847  25.7939196
  57.1855328  71.9195285  35.2224813  57.9095301  71.9048316  35.7089708
  57.2871465  72.6290640  34.7246781  57.3073538  72.0219988  35.2203600
  64.5600278  75.3994370  40.0873760  63.7673259  75.7137882  40.2726380
  64.6749205  75.6145838  39.2494545  64.4595688  75.4778206  39.9912095
  67.2331597  72.1228361  24.3768776  67.3278451  72.8617655  24.8308401
  66.6090440  71.6945836  24.8103340  67.1540627  72.1689681  24.5076923
  65.4884071  75.3014574  35.0259057  66.0622932  74.6641818  35.1807621
  65.4098874  75.3018656  34.1568714  65.5617306  75.2079685  34.9205468
  54.0880487  72.0803783  28.8641771  54.6653990  71.9440234  29.5034016
  53.3894549  71.6239567  29.1187355  54.0701509  71.9926049  28.9964061
  60.8447789  73.7337839  27.0780254  60.5867034  72.9009574  27.0511554
  60.8996272  73.9595452  26.2372754  60.8147567  73.6435610  26.9500391
  65.9248839  65.8366289  27.1784347  65.2205166  65.3475475  27.3368266
  65.9733814  65.8488764  26.3072791  65.8278891  65.7655937  27.0723687
  59.8182501  71.2875601  27.5645149  59.2432093  71.4467769  28.2009110
  59.4418178  70.6511010  27.1013599  59.6785314  71.2173414  27.5899707
  63.4855790  69.7598950  32.4237527  63.0970223  69.3353168  31.7689718
  62.8210488  70.0081100  32.9314554  63.3302718  69.7337671  32.4025395
  73.1279059  69.5173955  25.1985357  72.8715624  68.7053897  25.0083240
  73.9708373  69.5251522  24.9715545  73.2145085  69.3985953  25.1370174
  49.5639320  70.9315676  25.5789589  49.6499572  70.5547544  26.3603119
  50.1915118  70.5576122  25.1009548  49.6695871  70.8201158  25.6235067
  67.3082152  63.4573579  29.9361511  67.6892663  62.7751750  30.3229386
  66.5045436  63.1683181  29.7537176  67.2458613  63.3140628  29.9665567
  64.5894728  73.9897555  20.6214334  65.4035367  74.2812448  20.5097106
  64.5253870  73.3357417  20.0472627  64.6997467  73.9362750  20.5203172
  70.8104218  76.6723551  35.0343910  70.5742856  75.8411616  34.9155970
  71.4547447  76.6209158  35.6198754  70.8698889  76.5421239  35.1029803
  60.4602637  77.4619072  25.7486646  61.0976584  77.2230820  26.2938440
  60.8857708  77.6656231  25.0139807  60.6178803  77.4570083  25.7203804
  55.1515279  79.7007409  29.6320950  55.1919424  79.9722260  28.8040730
  55.7109803  80.2249317  30.0478738  55.2398625  79.8183164  29.5712838
  61.2673992  65.9627777  39.8024120  60.9527433  66.7327340  39.5393683
  60.9463925  65.3998033  39.2176347  61.1732911  65.9938046  39.6765470
  71.8340639  76.4568000  31.0972204  71.5286456  77.1896057  31.4585520
  71.1146855  76.0505929  30.8164990  71.6827981  76.5049733  31.1085341
  62.8424109  77.9391495  27.4280433  62.9163117  77.7766667  28.2822283
  63.6593615  78.1281685  27.1840914  62.9740467  77.9428237  27.5178458
  77.5342431  73.0961001  30.4240549  77.4666932  73.1156960  29.5543135
  77.5198094  73.9391328  30.6496219  77.5221188  73.2234735  30.3293026
  56.6029865  78.2849358  24.4574876  55.7767983  78.5311095  24.3309155
  56.6641856  78.2061439  25.3236934  56.4904032  78.3094307  24.5663821
  58.8205889  64.3518299  25.4170316  57.9528314  64.4240898  25.4827925
  59.1081093  65.1540378  25.6058291  58.7345637  64.4812446  25.4545083
  67.9438778  64.4996158  33.7481638  68.6892370  64.3105969  33.3345063
  67.5276082  65.0254396  33.1895494  67.9923752  64.5498304  33.6046211
  75.3201049  71.8705387  28.6987143  75.8708970  71.2373456  28.9384235
  75.3045164  72.4020780  29.3902647  75.3986245  71.8554335  28.8366001
  61.9723439  75.7043984  33.2447036  61.4735133  76.4159752  33.3231925
  62.7823664  76.0244651  33.2065199  62.0179546  75.8570833  33.2503605
  59.3234610  82.8793621  25.2254056  59.1034905  82.5890975  26.0180723
  59.1029132  82.2208576  24.6971968  59.2582204  82.7393329  25.2642964
  58.2351557  74.9666937  27.4909757  57.9464806  74.3404408  28.0255485
  59.1034905  74.9087224  27.5574438  58.3211809  74.8654481  27.5800712
  69.0229455  70.1101720  27.8091739  68.6794221  69.3892056  28.1598989
  69.1222497  69.9015572  26.9670097  68.9871498  69.9725924  27.7363419
  58.4383830  76.6062188  23.4152122  59.1929798  76.9875227  23.6287585
  57.8454443  77.0573332  23.8698819  58.4620544  76.7291015  23.5135001
  60.8990497  68.5625028  38.5409335  60.0890273  68.8682808  38.4299177
  61.3765184  69.2830611  38.6561919  60.8493976  68.7139630  38.5416406
  59.7582057  77.7770749  28.7892238  59.2362811  77.9171041  29.4744102
  60.1456077  77.0181414  28.9794355  59.7385758  77.6856273  28.9193314
  56.7473241  67.8276558  22.8587192  56.4598037  67.4577829  22.1219140
  57.4343709  68.2971413  22.5970897  56.8062138  67.8423528  22.7102268
  61.1848383  74.8074768  24.1873729  60.9891165  75.4149503  23.5934032
  61.4082728  74.1142712  23.7065403  61.1883024  74.7952294  24.0289810
  59.5826913  71.6929506  24.3054597  60.3049565  71.8570665  23.8458403
  59.1034905  72.4139171  24.1993937  59.6190643  71.8227736  24.2220211
  67.5420420  68.0293305  29.6851282  66.7031521  68.0554584  29.4489545
  67.6124788  68.6764041  30.2656629  67.4288814  68.1289431  29.7360399
  57.2334529  74.0987579  33.4108737  57.7455626  74.3771832  32.7617497
  56.9470872  74.8376873  33.7771550  57.2669392  74.2489932  33.3698615
  65.9889699  64.9278682  24.4178898  66.6916051  64.7286431  23.9398856
  65.7233887  64.1554625  24.7247742  66.0536331  64.7841648  24.3924340
  71.4177944  73.2361292  26.9712524  71.3311919  73.3916718  27.8247303
  70.9628424  73.8799367  26.5971929  71.3381201  73.3537047  27.0419631
  54.3201436  68.6057771  23.7072474  54.4217572  69.4083932  24.0353449
  55.1157322  68.4045107  23.4095554  54.4529341  68.6943669  23.7107829
  60.7518255  66.1913967  33.4709779  60.5601452  66.2069102  34.3209202
  61.6016851  66.3877642  33.4476434  60.8493977  66.2228319  33.5933073
  55.1365168  68.7204949  31.4493595  54.9950660  67.8688890  31.5738103
  55.4205731  68.7633610  30.6255801  55.1573014  68.6004699  31.3461219
  65.2903760  70.5572039  25.5938083  65.0438474  70.4767790  26.4274872
  65.6188883  69.7725507  25.4000611  65.3025004  70.4298304  25.6885606
  69.1851809  77.2655398  29.3824865  69.0466168  77.9636444  29.8873607
  68.4051807  77.1104055  29.0261046  69.0495036  77.3455565  29.4051139
  67.5229894  73.5651774  35.6347246  67.5177933  72.6931590  35.6389673
  68.2290888  73.7639943  35.1616702  67.6274898  73.4655648  35.5654282
  61.2500787  73.2928758  35.0061066  61.3944163  73.8729966  34.3704176
  61.5976436  73.6705054  35.7110921  61.3228249  73.4349462  35.0160061
  63.4220705  72.4918926  32.7886198  62.6744019  72.6849940  32.3834476
  63.5762230  71.6664146  32.5510319  63.3343132  72.3984037  32.6931604
  60.3228542  81.4831529  31.8722093  60.4718106  80.9234445  31.2195498
  61.1028544  81.5623531  32.2554612  60.4602636  81.4117095  31.8319042
  62.8481843  81.6546172  33.1506584  62.7725514  80.9854983  33.7057372
  62.7771702  82.3563961  33.6647250  62.8262450  81.6591080  33.3083432
  63.6622482  66.3869477  33.6781602  64.1195096  67.1193451  33.8054394
  63.7378811  65.9635942  34.4368858  63.7413452  66.4326715  33.8082678
  55.9055473  66.6335296  34.7671045  55.3697662  66.0215655  35.0831813
  55.9673238  67.2083432  35.4204712  55.8351106  66.6282224  34.9106472
  68.1349808  59.5659352  27.5475445  68.2533376  60.0235815  26.8142747
  67.9611983  58.7604613  27.2611662  68.1268979  59.5153124  27.3976378
  63.5052090  80.1747171  23.9830190  64.2701981  79.9056815  23.6612854
  63.4030180  79.6897182  24.7000253  63.6033585  80.0636736  24.0410018
  61.5404860  68.3771581  30.5223426  60.7500934  68.1963041  30.8440762
  61.9365483  67.5998533  30.5053720  61.4821736  68.2359042  30.5675974
  66.9248546  76.0114011  28.2482872  66.2493548  75.7799243  28.7496259
  66.9340922  75.4035194  27.6224977  66.8267051  75.8872936  28.2299024
  64.0542690  70.8531840  35.0046925  63.9901831  71.7141796  34.8767061
  64.1939878  70.5363833  34.2042476  64.0658160  70.9332006  34.8675138
  62.7361784  73.5463979  29.1463128  62.3124033  73.7468478  28.4102146
  62.5606639  72.6992827  29.2587427  62.6472664  73.4512761  29.0536818
  58.0244229  74.0416031  24.5791100  58.1808848  73.9762833  25.4347092
  58.3644822  74.8164583  24.3669780  58.0977464  74.1465229  24.6745694
  64.5623373  73.4173914  23.4484463  65.1038919  72.9144295  23.9123084
  64.8769932  73.3639109  22.6373949  64.6887771  73.3353335  23.3968275
  68.4340481  77.6276561  40.5611376  69.2475346  77.3561710  40.7216508
  68.2735447  77.3284101  39.7571571  68.5310429  77.5431488  40.4656781
  65.7112643  68.3110219  33.5006764  65.9254612  67.6721133  32.9470118
  65.0946542  68.7556043  33.0714626  65.6517972  68.2820362  33.3557195
  54.5978490  71.2250981  24.8951867  54.9777455  71.6435526  24.2312135
  54.0233855  71.8064437  25.2020711  54.5689815  71.3728840  24.8428608
  67.8751731  69.9199284  34.4390071  67.0628413  69.6125174  34.5203244
  68.3341665  69.4398284  35.0032783  67.8232116  69.8035776  34.5344665
  67.2856986  77.7978956  24.8867015  66.9271640  77.9693599  25.6631048
  66.7995696  78.2592161  24.3295014  67.1615682  77.8917927  24.9192284
  65.1027371  61.4210154  28.4894107  64.2320929  61.3948875  28.4427416
  65.3567713  61.2487346  27.6719952  65.0120932  61.3920298  28.3614243
  64.9705238  71.3259355  39.2218773  65.4404870  71.9501472  39.6086647
  65.0167119  70.6576331  39.7811988  65.0473114  71.3194036  39.3618845
  62.1276512  63.4316383  29.9467577  61.6115001  62.7396574  30.0719156
  61.5670441  64.0987160  29.8930176  61.9683025  63.4279640  29.9573643
  64.1968745  63.9709343  31.7760430  63.8100499  63.9958374  32.5573959
  63.7101683  63.4051021  31.3234946  64.0681254  63.8905094  31.8248333
  68.4461725  78.6882852  35.8334216  69.0841445  78.1943047  35.4996672
  67.8035816  78.6160252  35.2486443  68.4455951  78.6041860  35.6976571
  70.1718725  70.5371998  30.4000132  69.7446333  70.4498346  29.6448231
  69.5344778  70.6449773  30.9854976  70.0148332  70.5404658  30.3745573
  63.8625887  60.8576328  34.0670689  64.4919005  61.3936628  33.7891760
  64.0311750  60.7653687  34.9184255  63.9803682  60.9237691  34.1519218
  63.6639802  65.6447523  36.3397101  64.4913231  65.3732672  36.3955716
  63.6847648  66.4408365  36.6960919  63.7892652  65.7227277  36.4012284
  68.5015981  79.3802660  32.4739573  69.2908360  79.0291725  32.5941655
  68.6759579  80.1939048  32.2116207  68.6436263  79.4488517  32.4527441
  58.2409292  72.7911386  29.5267362  57.3997298  72.6915260  29.7346256
  58.4499300  73.5606866  29.8781682  58.1473984  72.8903429  29.6094677
  55.7184859  70.4130923  27.3552112  55.3241557  70.4873935  26.5802222
  55.1624976  70.7988869  27.9060474  55.5787671  70.4812697  27.3219772
  67.3549806  63.3912217  27.0355991  67.5599399  63.3234525  27.8812988
  67.0276230  64.1971038  26.9677169  67.3365054  63.4998157  27.1515646
  62.0525957  70.7192785  28.7764959  61.7489094  70.1648773  29.3775367
  61.3505378  70.8984995  28.2892993  61.9042167  70.6637567  28.7934665
  61.1092054  68.0293305  23.3409661  61.3851788  67.3112217  22.9287229
  61.7090723  68.6278225  23.1330767  61.2385318  68.0113676  23.2490422
  60.1144308  77.9342506  33.4837057  60.0064663  77.9444568  34.3499115
  60.3240089  78.7597286  33.2942011  60.1294419  78.0583580  33.5841149
  70.6083493  63.9443981  26.5158757  69.9957807  64.4314383  26.9012489
  70.7047668  63.2687472  27.0596408  70.5321391  63.9162290  26.6537615
  64.6102574  65.7006822  21.6156256  65.0646321  65.8717383  22.3404101
  65.0842620  65.0874933  21.2154032  64.7470894  65.6357707  21.6630018
  58.1318100  75.1855148  30.9458995  57.5406033  75.8264646  30.9162010
  58.8939123  75.6092765  30.9190294  58.1566360  75.3430987  30.9374142
  58.5278723  66.3457146  31.6127012  58.9880204  66.4196075  32.3502136
  58.5734829  67.1438400  31.2626834  58.6029278  66.4751293  31.6699769
  60.1762072  67.0123841  36.1799039  59.7847637  66.3657188  36.6154817
  60.3447935  67.6035276  36.7993295  60.1432983  67.0038109  36.3361745
  74.2508521  75.0160918  31.9436273  74.3091645  75.4647567  32.6896249
  73.6174989  75.4259731  31.5066353  74.1659816  75.1434652  31.9888821
  61.9515594  72.4049356  22.7201263  62.6957639  72.7923633  22.9584213
  62.0976291  71.5606782  22.8841751  62.0826179  72.3379829  22.7795233
  63.8695170  64.1999615  27.7533125  63.0231215  64.3722423  27.6274475
  63.8666302  63.3948959  28.0898953  63.7442320  64.1060644  27.7844252
  64.9393470  67.9774830  28.6195183  64.4653424  67.4516592  29.1300494
  65.3111606  67.4304303  28.0510044  64.9243359  67.8190826  28.6110330
  55.3166500  69.9746337  33.9878728  56.1792113  69.8742046  33.9016058
  54.9858283  69.3941046  33.4264301  55.3951697  69.8737963  33.8924134
  71.2030201  73.0377205  30.0301963  70.9628424  72.1983621  30.0344390
  71.6822208  73.1177372  30.7542737  71.2382384  72.9258605  30.1376766
  66.8676970  68.8711384  21.6820937  66.3399988  68.9540128  20.9926645
  67.3272678  69.6129256  21.6785581  66.8578820  68.9932047  21.5795632
  73.2035388  69.8178663  27.9831222  72.9645158  69.7774497  27.1452007
  73.3669289  70.6649815  28.1096943  73.1925691  69.9370748  27.8784704
  69.8081418  74.2028612  33.9136267  70.5315617  73.7501138  33.7347287
  69.5431380  74.4833278  33.1308595  69.8762691  74.1779580  33.7714983
  58.6768286  68.7988786  30.6489147  58.0521356  68.8107177  30.0415099
  58.3413881  69.2748961  31.2980387  58.5353778  68.8707303  30.6545715
  58.8610035  67.1413904  16.7061832  58.5122839  67.7933629  17.1693381
  58.3806481  67.1271017  15.9785703  58.7380279  67.2356958  16.6672923
  55.3893962  76.8589246  32.0892911  54.8593886  76.1681685  32.1387886
  55.6619055  76.8499431  31.2605619  55.3518684  76.7556377  31.9740327
  65.5900207  74.3012490  32.0631283  64.9757201  73.7570541  32.3579918
  66.1067492  73.7876727  31.5837099  65.5755870  74.1448899  32.0355511
  64.8296505  75.3716760  29.7975581  64.4024113  74.7466479  29.3641017
  64.8221449  75.0891682  30.6234588  64.7655646  75.2369541  29.8555409
  57.9459032  70.4081933  32.8664015  58.1052518  69.6525257  33.2715737
  57.7651925  70.9572873  33.5204753  57.9424391  70.3775747  33.0226721
  65.8879335  62.5743169  33.4214805  65.3919896  62.7706843  32.7306371
  66.6448397  62.9735837  33.2503606  65.9266159  62.6620903  33.2934941
  63.1582214  66.2485515  30.0118115  63.1824701  65.7145627  29.3230895
  63.4093688  65.7402824  30.6743706  63.1992133  66.0946419  30.0082760
  50.6689804  73.5317010  29.4461259  50.5633253  73.4863854  28.5813343
  49.9190024  73.8770790  29.7275544  50.5425407  73.5757918  29.3598589
  59.4383536  64.9756333  29.3923859  59.4781908  65.4765540  30.1058567
  58.6133201  65.0666727  29.1229783  59.3223062  65.0638149  29.4574398
  61.6213149  74.5417073  37.4944154  60.7708780  74.6788787  37.6301799
  61.7841277  73.8080851  37.9391856  61.5197013  74.4531174  37.5799753
  60.8597900  71.4916843  31.6897759  60.0289830  71.6590661  31.4833007
  60.8049417  71.1152794  32.4746644  60.7287315  71.4606574  31.7746287
  59.2333944  69.7672434  22.2187876  59.3736905  70.2644899  22.9216518
  59.7316477  69.0658729  22.3602090  59.3275025  69.7374413  22.3439455
  59.2634166  70.6339545  19.5480453  59.8979246  71.2299970  19.4829915
  59.3459777  70.3343003  20.3626323  59.3690717  70.6780454  19.6583540
  72.2416732  73.1655023  32.4166817  72.8334572  73.8052274  32.4485015
  72.6775726  72.4678060  32.7058884  72.3935163  73.1573373  32.4647650
  60.8413149  66.5653521  19.5225895  61.1628990  66.0856603  18.8685157
  61.1040093  67.3753167  19.3316707  60.9279174  66.6143419  19.3981387
  64.0710122  77.5872395  33.0424711  63.5635213  78.1408242  33.4865342
  63.7736768  77.6480685  32.2243486  63.9515007  77.6778706  32.9873168
  66.2372304  65.9525715  31.8849374  66.6627376  65.4998241  31.2732901
  65.6229297  65.3985786  32.1614162  66.2100949  65.8039691  31.8354399
  55.7687154  72.8307386  22.8169999  56.2779383  73.4271894  23.1981305
  56.2421426  72.5633360  22.1346419  55.9130530  72.8793202  22.7724522
  64.6766527  62.4240815  25.2939951  64.0334845  62.2738461  25.8625090
  64.3365934  62.1783160  24.5289056  64.5311604  62.3652937  25.2642966
  69.2665873  70.3800241  24.7169960  68.5957063  70.9229944  24.5883025
  69.9605624  70.8495097  24.4751655  69.2694741  70.5298513  24.6625487
  63.3152607  82.5196953  29.9481718  63.0918261  81.7615783  30.3165744
  62.8262450  82.5494975  29.2262158  63.2096056  82.4119178  29.8958459
  69.4294001  66.8356125  27.6260333  69.7821611  66.4085848  28.3006132
  68.5708802  66.7506969  27.7561409  69.3543445  66.7600866  27.7455343
  58.1277686  69.4663645  25.6843179  57.4089675  69.8827777  25.9516043
  58.4990048  70.0317884  25.1334818  58.0769618  69.6112926  25.6425986
  67.4277267  70.0991494  31.5745175  67.4075194  69.9174789  32.4279954
  67.4756467  70.9703512  31.5504759  67.4311908  70.2008032  31.6968470
  65.3723596  76.6878686  37.4993652  65.3319451  76.0428363  36.9138808
  66.1846915  76.6315303  37.8119064  65.4866750  76.5837652  37.4590601
  61.9631064  82.7397412  27.4018803  61.5491463  82.0771542  27.0122644
  62.6478438  82.8875270  26.8814497  62.0029436  82.6638070  27.2675300
  65.3296358  81.8987497  28.1542419  64.9312641  82.0089767  27.3863239
  64.7147578  82.1069563  28.7368979  65.1795247  81.9461065  28.1273719
  63.9024260  68.5061645  21.0216559  63.3089099  68.8278641  20.4701126
  63.9399538  67.6602740  20.8137665  63.8198649  68.4285973  20.9099330
  70.8618061  61.9574537  28.5544645  70.3548925  61.2503676  28.4865823
  71.6585495  61.6267726  28.6845722  70.9045300  61.8047688  28.5643640
  66.7782077  68.4641149  24.4518309  66.5495770  68.4873851  23.6096667
  67.0380153  67.6398616  24.5713320  66.7828265  68.3457229  24.3443507
  61.0601305  70.3175622  34.0543409  60.5480208  69.7096805  34.4128441
  60.8880801  71.0332215  34.5217385  60.9590942  70.3338921  34.1759633
  55.9067020  68.7613198  36.7045771  55.7369610  69.4214572  36.1593978
  55.4632970  68.9719759  37.4258260  55.8166353  68.8899180  36.7307401
  59.8326839  67.0017695  25.7472505  60.3084205  67.3634775  25.1122686
  59.3315439  67.6574163  26.0272648  59.8292198  67.1511884  25.6949246
  64.9370375  68.2399867  36.4945665  65.4941806  68.0113676  35.8624130
  64.6131440  69.0005532  36.2180877  64.9716786  68.3183704  36.3602162
  52.8069084  71.6660063  31.9634261  52.2595804  70.9960709  32.0815129
  53.5961463  71.2989911  32.0277728  52.8421268  71.5125049  31.9902962
  62.6553493  71.3267520  37.4597672  63.4064820  71.6419197  37.7737226
  62.8476069  71.1246691  36.6331594  62.7944907  71.3434902  37.3841068
  61.8753492  69.1458895  19.1145889  62.2552457  69.1638524  18.3297004
  61.1346088  69.5912884  18.9936736  61.8222330  69.2140670  18.9809457
  69.5038783  67.4541086  24.7021467  69.5033009  67.2989743  25.5605744
  69.2994963  68.3004073  24.6462853  69.4738561  67.5561707  24.8209407
  51.5656054  70.8780871  29.1180284  51.3877815  70.4257480  29.8435200
  51.2775076  71.6807032  29.3018762  51.4969007  70.9303429  29.2523787
  67.2279635  72.1338588  28.3557674  67.7233300  71.4161583  28.3161695
  66.4179411  71.8309386  28.2412161  67.1823528  71.9836235  28.3331400
  62.6738246  75.9836401  20.5054679  61.8649569  75.6603075  20.4587988
  63.1813155  75.2769624  20.4382927  62.6287913  75.8317718  20.4884973
  53.3028524  73.4108595  26.2302043  52.4374043  73.3994285  26.1184814
  53.4027340  73.2238817  27.0773182  53.1902691  73.3814656  26.3390988
  69.2931454  74.8842276  31.0434803  69.7186525  74.3616698  30.4905228
  68.9288374  75.4823113  30.5223426  69.3018056  74.8952503  30.8843813
  58.9285534  83.1806493  29.8032149  59.2432093  83.9942882  29.8109930
  59.3378947  82.7956712  30.4714308  59.0353632  83.2435196  29.9036240
  65.8810053  78.5976540  27.3735961  66.3521231  79.3116803  27.5425946
  66.2170232  77.9975290  27.9095830  66.0005168  78.6148004  27.4768336
  67.9687038  80.2077853  39.5528033  68.0784003  79.4186414  39.9084780
  68.2977934  80.1183790  38.7502371  68.0339444  80.0783706  39.4870423
  62.7979548  63.3704011  34.3294055  62.9307454  62.5735004  34.6575031
  63.1824701  63.8970414  34.9092331  62.8735877  63.3303927  34.4637558
  66.5184000  78.3894474  34.1363653  65.9704946  77.7652358  33.8683719
  66.9797028  78.5788746  33.4207733  66.5051209  78.3253524  33.9914084
  65.8711903  60.2934337  30.9275149  65.0657867  60.1832066  31.2442987
  65.7418639  60.3946792  30.0705014  65.7332036  60.2918007  30.8483189
  69.3277864  66.4579829  31.5214846  68.7440853  66.9589035  31.1092413
  69.6482158  65.9509385  30.8879169  69.2891039  66.4571664  31.3673353
  61.8672663  65.3720423  21.7973520  62.6888357  65.5418736  21.5555215
  61.4042314  65.5267684  21.0739818  61.9203825  65.4202156  21.6545165
  60.4567995  63.3663186  32.5771949  61.0012408  63.0254312  33.1676291
  60.5104931  64.2248647  32.7193234  60.5457114  63.4418445  32.6853823
  56.2698554  77.1279602  29.4510757  56.8743411  77.0875436  28.8224578
  56.0625866  77.9750754  29.4814813  56.3287451  77.2467604  29.3626874
  66.0842326  79.3945547  30.6672994  66.9040700  79.2508513  30.9289290
  65.8036404  80.0191746  31.2089432  66.1639069  79.4655899  30.7860934
  51.5049836  76.1114219  29.3209680  51.4074114  75.3010491  29.6299737
  52.2878706  76.0906013  28.9355948  51.6065972  75.9881309  29.3096543
  34.8669867   7.2709475  24.9269304  35.5736635   6.7761505  25.0556239
  35.0557803   7.7118556  24.1971962  34.9997773   7.2627825  24.8378350
  34.4027972   3.0614993  17.9640500  34.9483932   3.7400080  18.0234469
  34.3444848   2.9202454  17.1042081  34.4743886   3.1406995  17.8452560
  27.3602786  15.4681648  14.7523708  28.0040242  15.9094812  15.1419867
  27.6859042  14.6635074  14.6653967  27.5034615  15.4146843  14.7969185
  30.3070744   8.3078981  17.0483466  30.5893987   7.5130386  16.8270222
  31.0356904   8.7859568  17.0688527  30.4560307   8.2613578  17.0186481
  40.2888832   7.4138343  14.0219297  39.4586535   7.6248987  14.1852713
  40.2398084   6.5875398  13.7461580  40.1595567   7.3227949  14.0056662
  28.3498570  10.2442197  16.8567206  27.8325511   9.8849612  16.2528514
  29.0472961   9.7204372  16.8673272  28.3764151  10.1139885  16.7697465
  32.0062162  10.6937011  22.8183379  32.0945507  10.5063152  23.6661590
  32.4351874  10.0474441  22.4188226  32.0824264  10.5700019  22.8855131
  29.5732621   9.9768171  21.8001042  29.0103456   9.5640781  22.3240703
  30.3353645   9.9021077  22.2194185  29.6027070   9.9045572  21.9394042
  39.7842790   0.0608744  17.8169718  38.9471211   0.1310931  18.0517313
  39.7531021   0.0633238  16.9444021  39.6561073   0.0718971  17.7229266
  26.1807519   2.2041779  23.5318087  26.3528023   2.0947674  24.3803368
  26.7176877   2.8496185  23.2949279  26.2852523   2.2833781  23.6223184
  25.0832091   8.5773419  18.2136585  25.6230316   8.4344551  18.8839958
  24.4002038   8.9770170  18.5820612  25.0624245   8.6153090  18.3671007
  37.5453147   8.0837697  14.1584013  37.1088379   8.0874440  14.9142984
  37.2116063   8.7643196  13.7263590  37.4315767   8.1850153  14.2064845
  32.1182221  10.1246030  25.4827163  32.9022637  10.2376878  25.8482905
  31.9178815   9.2987167  25.6785849  32.2048246  10.0192750  25.5661549
  32.2752614  12.0356132  19.1293619  31.4767860  11.7955632  19.3867487
  32.7238626  12.0870525  19.8760666  32.2227225  12.0078523  19.2778543
  23.9608402   2.3017493  22.1564860  24.6848374   2.2870523  22.6429754
  24.0624538   3.0112848  21.6586828  24.0826611   2.4042196  22.1543647
  31.3353351   5.7816577  27.0213807  30.5426332   6.0960089  27.2066426
  31.4502278   5.9968046  26.1834591  31.2348762   5.8600414  26.9252142
  32.2637144   5.6836781  21.9599103  32.8376006   5.0464025  22.1147667
  32.1851948   5.6840863  21.0908761  32.3370379   5.5901892  21.8545514
  37.5857292   7.0545759  21.9683957  37.3495929   6.2233823  21.8496017
  38.2300521   7.0031366  22.5538801  37.6451962   6.9243446  22.0369850
  28.0427065  -3.6550015  26.7364167  27.7280506  -2.8850452  26.4733729
  27.7216998  -4.2179759  26.1516394  27.9485984  -3.6239747  26.6105517
  38.6093712   6.8390207  18.0312251  38.3039529   7.5718264  18.3925567
  37.8899928   6.4328137  17.7505037  38.4581055   6.8871940  18.0425388
  44.3095504   3.4783208  17.3580595  44.2420005   3.4979167  16.4883182
  44.2951167   4.3213535  17.5836266  44.2974261   3.6056943  17.2633072
  42.0954122   2.2527594  15.6327190  42.6462043   1.6195663  15.8724282
  42.0798237   2.7842987  16.3242694  42.1739318   2.2376542  15.7706048
  28.7476513   6.0866191  20.1787083  28.2488206   6.7981959  20.2571972
  29.5576737   6.4066858  20.1405246  28.7932619   6.2393040  20.1843652
  27.6743571  -1.0552764  25.4749382  26.8643346  -0.7494984  25.3639224
  28.1518257  -0.3347182  25.5901966  27.6247049  -0.9038163  25.4756453
  24.0087603   4.4809786  20.3448784  24.5208699   4.7594039  19.6957544
  23.7223945   5.2199080  20.7111597  24.0422466   4.6312140  20.3038662
  35.9604882   7.6477606  16.3164911  35.8219241   8.3458652  16.8213654
  35.1804880   7.4926262  15.9601093  35.8248109   7.7277772  16.3391186
  34.2982967   3.9473981  22.5687293  34.2931006   3.0753798  22.5729720
  35.0043961   4.1462150  22.0956749  34.4027971   3.8477855  22.4994329
  28.0253861   3.6750965  21.9401113  28.1697236   4.2552173  21.3044223
  28.3729509   4.0527262  22.6450968  28.0981322   3.8171669  21.9500108
  30.1973778   2.8741133  19.7226245  29.4497092   3.0672148  19.3174523
  30.3515303   2.0486353  19.4850366  30.1096206   2.7806245  19.6271651
  27.0981616  11.8653737  18.8062140  27.2471179  11.3056653  18.1535545
  27.8781618  11.9445739  19.1894659  27.2355709  11.7939302  18.7659089
  29.6234916  12.0368380  20.0846631  29.5478587  11.3677190  20.6397419
  29.5524775  12.7386168  20.5987297  29.6015523  12.0413287  20.2423479
  30.8295763   1.2354047  21.9386972  30.7654904   2.0964004  21.8107108
  30.9692951   0.9186040  21.1382523  30.8411233   1.3154214  21.8015184
  29.0126551  15.4436699  18.5424632  29.5022481  14.7447489  18.3600296
  28.4410783  15.1460569  19.1300689  29.0011080  15.2962923  18.6025673
  35.2093554   8.0098769  27.4951422  36.0228419   7.7383918  27.6556555
  35.0488520   7.7106309  26.6911618  35.3063503   7.9253695  27.3996828
  34.6504804   0.3021491  21.3730118  33.8381486  -0.0052618  21.4543290
  35.1094739  -0.1779509  21.9372830  34.5985189   0.1857984  21.4684712
  31.7458312   1.7081563  26.1558820  32.2157943   2.3323679  26.5426694
  31.7920192   1.0398538  26.7152035  31.8226187   1.7016243  26.2958891
  35.2214798   9.0705059  22.7674263  35.8594519   8.5765255  22.4336719
  34.5788890   8.9982460  22.1826490  35.2209025   8.9864068  22.6316618
  30.4392875  -3.9730270  23.2737148  31.2666305  -4.2445121  23.3295762
  30.4600721  -3.1769428  23.6300966  30.5645725  -3.8950515  23.3352331
  35.2769055   9.7624867  19.4079620  36.0661433   9.4113932  19.5281701
  35.4512653  10.5761256  19.1456254  35.4189336   9.8310725  19.3867488
  26.8897381   8.3164713  20.4177104  26.7817736   8.3266775  21.2839162
  27.0993162   9.1419493  20.2282058  26.9047492   8.4405788  20.5181195
  26.9515146  -2.6053952  23.1139086  26.5600711  -3.2520605  23.5494864
  27.1201008  -2.0142517  23.7333342  26.9186056  -2.6139684  23.2701792
  41.0261595   5.3983125  18.8776320  41.0844718   5.8469774  19.6236296
  40.3928062   5.8081938  18.4406400  40.9412890   5.5256860  18.9228868
  34.6660689  11.0186667  15.3131066  34.4680378  11.5077482  14.6187277
  34.0448400  11.2227909  15.8915199  34.5448254  11.1203205  15.2954289
  37.9783274   3.4199413  16.9642010  37.7381497   2.5805828  16.9684436
  38.4575281   3.4999580  17.6882784  38.0135458   3.3080813  17.0716812
  36.5834491   4.5850819  20.8476314  37.3068690   4.1323346  20.6687334
  36.3184453   4.8655485  20.0648642  36.6515764   4.5601788  20.7055030
  32.3653281   4.6834698  18.9971329  31.7510274   4.1392748  19.2919965
  32.8820566   4.1698934  18.5177145  32.3508943   4.5271107  18.9695558
  28.3966223   4.9239280  24.4284201  27.5461853   5.0610995  24.5641846
  28.5594350   4.1903059  24.8731903  28.2950086   4.8353382  24.5139800
  39.0169805   3.5477230  19.3506864  39.6087645   4.1874481  19.3825062
  39.4528800   2.8500267  19.6398931  39.1688236   3.5395581  19.3987697
  30.8463195   7.9694603  19.9764758  30.3388286   8.5230449  20.4205388
  30.5489841   8.0302892  19.1583532  30.7268080   8.0600914  19.9213215
  30.0905680  12.9019161  16.8821765  29.8671335  12.1437990  17.2505791
  29.6015524  12.9317182  16.1602205  29.9849129  12.7941385  16.8298506
  34.2030340   0.4813701  18.5085222  34.1828267   0.2996996  19.3620001
  34.2509540   1.3525720  18.4844806  34.2064981   0.5830239  18.6308517
  32.1476670   7.0700893  24.4333699  32.1072524   6.4250570  23.8478854
  32.9599988   7.0137510  24.7459111  32.2619823   6.9659860  24.3930648
  28.7384137  13.1219619  14.3358849  28.3244536  12.4593749  13.9462691
  29.4231511  13.2697478  13.8154544  28.7782509  13.0460277  14.2015347
  32.1049431  12.2809704  15.0882466  31.7065715  12.3911975  14.3203286
  31.4900651  12.4891771  15.6709026  31.9548321  12.3283272  15.0613765
  27.8354378   0.6997830  20.9883456  27.3233281   0.0919013  21.3468488
  27.6633874   1.4154422  21.4557432  27.7344015   0.7161129  21.1099680
  31.7123449  -1.3777926  23.4285712  32.2694879  -1.6064116  22.7964177
  31.3884514  -0.6172260  23.1520924  31.7469859  -1.2994089  23.2942209
  29.4306566   1.7089728  24.3937719  30.1817893   2.0241404  24.7077273
  29.6229142   1.5068898  23.5671641  29.5697980   1.7257109  24.3181115
  36.0684527   5.2664483  17.9774850  36.4939599   4.7438905  17.4245275
  35.7041447   5.8645321  17.4563473  36.0771130   5.2774710  17.8183860
  25.7038607  13.5628701  16.7372195  26.0185166  14.3765089  16.7449977
  26.1132020  13.1778919  17.4054355  25.8106705  13.6257403  16.8376287
  32.6563126   8.9798747  14.3076007  33.1274305   9.6939010  14.4765993
  32.9923305   8.3797498  14.8435877  32.7758241   8.9970212  14.4108383
  34.7440111  10.5900061  26.4868079  34.8537076   9.8008621  26.8424827
  35.0731008  10.5005997  25.6842418  34.8092517  10.4605914  26.4210470
  33.2937073   8.7716682  21.0703700  32.7458019   8.1474565  20.8023765
  33.7550101   8.9610954  20.3547779  33.2804282   8.7075732  20.9254131
  32.8595399   9.7767754  17.6013041  33.6793773   9.6330720  17.8629336
  32.5789477  10.4013953  18.1429479  32.9392142   9.8478106  17.7200981
  49.3309049  17.4332606  10.5655918  49.3003054  18.2877243  10.7374187
  49.9290398  17.1327899  11.1242061  49.4146207  17.5149102  10.6730720
  42.5308734  16.5208257  15.3208848  41.6746630  16.6816755  15.3717965
  42.5776388  15.6500321  15.3413909  42.4107846  16.4159059  15.3314914
  36.9149874  26.0570975  11.0846080  36.1632774  25.6786513  10.8562125
  37.3635886  26.0889408  10.3364890  36.8699541  26.0056582  10.9403582
  45.8402451  22.7894783  24.9269304  46.5469218  22.2946813  25.0556239
  46.0290386  23.2303864  24.1971962  45.9730356  22.7813133  24.8378350
  42.3674834  26.4796344   6.5131627  42.0326202  27.1573266   6.0775849
  42.8801704  26.0901656   5.9248498  42.3940415  26.5220923   6.3618418
  41.9079125  28.4310613  12.4542738  42.2918505  28.9997512  11.9147513
  41.8438266  27.7060123  11.9748554  41.9552552  28.4086076  12.3036601
  45.3760555  18.5800301  17.9640500  45.9216515  19.2585387  18.0234469
  45.3177432  18.4387762  17.1042081  45.4476470  18.6592303  17.8452560
  38.4934630  26.0689367  13.3508852  38.5944993  25.2589721  13.6605980
  37.8976375  25.9746313  12.7208531  38.4207169  25.9354395  13.3035091
  47.1525624  20.0084908   8.8374227  47.0365150  20.7592594   9.2666366
  47.9481511  19.7508861   9.0870314  47.2530213  20.0819755   8.9378319
  38.3335370  30.9866956  14.7523708  38.9772825  31.4280120  15.1419867
  38.6591625  30.1820382  14.6653967  38.4767198  30.9332151  14.7969185
  31.6899674  22.0909654  12.9761186  31.4549859  21.2577306  12.8693455
  31.8285315  22.3714319  12.1622387  31.6755337  22.0093157  12.8403541
  33.9889762  14.2595384  15.8745493  33.3694794  13.6688031  15.7055508
  33.8873626  14.8506819  15.2409817  33.8827437  14.2599467  15.7550483
  39.0355949  23.9978931  10.1243570  39.3571791  24.5384138   9.5204878
  39.6828046  23.4275702  10.2565860  39.1782005  23.9938106  10.0550605
  41.0857658  15.9994926  10.2077957  41.7837822  16.1783053  10.6999420
  41.4009990  15.4765265   9.5848346  41.2352995  15.9488698  10.1879967
  33.7158895  17.8047666  18.1189062  33.5917592  18.3910111  18.7538881
  34.3677179  17.3107862  18.4201337  33.7932544  17.8186470  18.2574992
  41.2745593  22.3865371  10.1957748  41.7139228  21.7782471  10.6412521
  41.1250256  22.0072744   9.4243213  41.3167059  22.2403842  10.1476915
  38.7417236  20.9809383  17.3976574  39.3866238  20.4881826  17.0787522
  38.9819013  21.1234169  18.2242652  38.8727821  20.9286825  17.4726107
  41.2803327  23.8264289  17.0483466  41.5626570  23.0315694  16.8270222
  42.0089488  24.3044876  17.0688527  41.4292891  23.7798886  17.0186481
  39.2584521  11.3687323  14.2899231  38.9287851  11.8198466  13.6202930
  38.5829523  11.2903486  14.8372238  39.1094957  11.4238458  14.2722454
  44.8754930  20.7392552   7.1488517  44.7906225  21.5953519   7.2938086
  45.3639313  20.4636876   7.8170676  44.9343827  20.8249874   7.2690599
  46.4660929   7.3572845  12.5348842  46.1514370   8.0476324  12.9669264
  45.9487871   7.3017628  11.8334343  46.3425399   7.4507734  12.4945791
  45.8073363  17.3577346   8.6486252  45.2784834  17.5736980   9.3083559
  46.3298383  18.0513485   8.5687222  45.8061816  17.4920483   8.7341852
  51.2621416  22.9323651  14.0219297  50.4319119  23.1434295  14.1852713
  51.2130668  22.1060705  13.7461580  51.1328151  22.8413257  14.0056662
  37.6972971  21.2540563   7.4493720  37.1130186  21.7590595   7.8559584
  37.2943066  21.0282950   6.7090312  37.5512274  21.2948811   7.3998746
  33.2516999  26.9695324  14.2517392  32.7684577  27.6945814  14.2276975
  34.0640317  27.2671454  14.3627550  33.3007747  27.1197678  14.2644671
  39.3231153  25.7627505  16.8567206  38.8058095  25.4034920  16.2528514
  40.0205544  25.2389679  16.8673272  39.3496734  25.6325193  16.7697465
  40.5465205  25.4953479  21.8001042  39.9836040  25.0826089  22.3240703
  41.3086228  25.4206385  22.2194185  40.5759654  25.4230880  21.9394042
  42.1550185  17.5006215   5.9262641  42.3946189  17.7084199   5.1137984
  42.4766026  16.6963724   6.0351585  42.2387343  17.4120316   5.8223194
  36.1061196  27.4851500  14.4037672  36.8081776  26.9703489  14.4610428
  36.0258679  27.8125652  15.2084547  36.1984957  27.4565726  14.5310464
  50.7575374  15.5794052  17.8169718  49.9203795  15.6496239  18.0517313
  50.7263605  15.5818546  16.9444021  50.6293656  15.5904279  17.7229266
  37.1540103  17.7227087  23.5318087  37.3260607  17.6132982  24.3803368
  37.6909460  18.3681493  23.2949279  37.2585107  17.8019089  23.6223184
  35.4311972  23.6757852  13.9123280  36.2700871  23.9080785  13.9597041
  35.4623741  22.8062164  13.8430315  35.5593689  23.5814799  13.9087924
  36.0564675  24.0958727  18.2136585  36.5962900  23.9529858  18.8839958
  35.3734621  24.4955478  18.5820612  36.0356829  24.1338398  18.3671007
  45.4805560  19.7749728  13.4081610  46.2363075  20.2081242  13.4470518
  45.5867884  19.1254498  13.9816246  45.6075730  19.7427212  13.4979635
  48.5185731  23.6023005  14.1584013  48.0820963  23.6059748  14.9142984
  48.1848646  24.2828504  13.7263590  48.4048351  23.7035461  14.2064845
  31.4601820  20.3159018  18.3671007  31.1940235  19.4998135  18.5261997
  31.4740384  20.3612174  17.4966522  31.4226542  20.2015923  18.2624489
  48.4383214  10.6436833  16.4013441  49.0809122  10.7134938  16.9875356
  48.6906234   9.9766056  15.8992982  48.5705346  10.5563182  16.4140720
  36.2100426  13.8537397  21.0138015  35.5172223  13.3834376  21.2598746
  36.8260754  13.6275701  21.5879722  36.1984956  13.7504528  21.1347167
  43.2485198  27.5541440  19.1293619  42.4500444  27.3140940  19.3867487
  43.6971209  27.6055833  19.8760666  43.1959809  27.5263831  19.2778543
  51.6530077  20.3203925  13.0503650  52.3146511  19.7594594  12.9499558
  51.0121489  19.8255956  13.3756341  51.6558945  20.1640334  13.0835990
  42.5406885  23.6174057   5.3584573  42.9558033  23.2859080   4.6669069
  41.7098814  23.3842959   5.2304710  42.4794894  23.5345313   5.2375421
  31.8695234  21.1017798  15.6482751  31.6870807  21.0764684  14.7955043
  32.6044902  21.5716735  15.6871660  31.9509297  21.1679160  15.5280670
  47.9394908  21.3369308  12.7915639  48.1750497  21.4814506  11.9642489
  48.0884471  22.1011716  13.1847152  47.9960711  21.4708362  12.7279243
  34.9340985  17.8202800  22.1564860  35.6580958  17.8055831  22.6429754
  35.0357122  18.5298156  21.6586828  35.0559194  17.9227504  22.1543647
  49.7685364  20.1770974  10.6285242  50.0993582  20.7098614  10.0225337
  50.3418453  20.2309861  11.2847193  49.9019044  20.2640542  10.6363024
  42.3085935  21.3001885  27.0213807  41.5158915  21.6145397  27.2066426
  42.4234862  21.5153354  26.1834591  42.2081345  21.3785722  26.9252142
  44.9817254  18.0235876  11.3108823  45.0764108  18.7625170  11.7648448
  44.3576097  17.5953352  11.7443387  44.9026284  18.0697197  11.4416970
  43.2369727  21.2022089  21.9599103  43.8108589  20.5649333  22.1147667
  43.1584531  21.2026171  21.0908761  43.3102962  21.1087200  21.8545514
  31.8366144  17.9811298  15.7981818  32.4139647  17.8447749  16.4374063
  31.1380206  17.5247082  16.0527402  31.8187165  17.8933565  15.9304107
  45.2340275  19.8684616   4.5445775  45.1520437  19.9386803   5.4100762
  45.8719995  20.4314360   4.3529515  45.3160112  19.9623587   4.6435724
  38.5933446  19.6345354  14.0120301  38.3352690  18.8017089  13.9851600
  38.6481929  19.8602967  13.1712801  38.5633224  19.5443125  13.8840438
  43.6734496  11.7373805  14.1124394  42.9690823  11.2482990  14.2708313
  43.7219471  11.7496279  13.2412838  43.5764548  11.6663453  14.0063733
  37.5668158  17.1883116  14.4985196  36.9917749  17.3475285  15.1349157
  37.1903835  16.5518526  14.0353646  37.4270971  17.1180929  14.5239754
  41.2341447  15.6606466  19.3577574  40.8455880  15.2360683  18.7029765
  40.5696145  15.9088615  19.8654601  41.0788375  15.6345187  19.3365442
  50.8764716  15.4181470  12.1325404  50.6201281  14.6061412  11.9423287
  51.7194030  15.4259038  11.9055591  50.9630741  15.2993468  12.0710221
  27.3124977  16.8323191  12.5129636  27.3985229  16.4555060  13.2943166
  27.9400775  16.4583637  12.0349595  27.4181528  16.7208673  12.5575114
  45.0567808   9.3581094  16.8701558  45.4378320   8.6759266  17.2569432
  44.2531093   9.0690697  16.6877223  44.9944270   9.2148143  16.9005614
  42.3380385  19.8905070   7.5554381  43.1521024  20.1819963   7.4437152
  42.2739526  19.2364933   6.9812674  42.4483124  19.8370265   7.4543218
  48.5589875  22.5731066  21.9683957  48.3228513  21.7419131  21.8496017
  49.2033104  22.5216674  22.5538801  48.6184546  22.4428754  22.0369850
  38.2088293  23.3626588  12.6826693  38.8462240  23.1238335  13.2278486
  38.6343365  23.5663747  11.9479854  38.3664460  23.3577598  12.6543850
  32.9000936  25.6014924  16.5660997  32.9405081  25.8729775  15.7380776
  33.4595460  26.1256832  16.9818785  32.9884282  25.7190679  16.5052885
  38.8491108  18.5828878   7.0201582  39.2336261  18.3636584   7.7718128
  38.6002729  19.4091823   7.1502659  38.8693181  18.6727024   7.1502659
  39.0159649  11.8635293  26.7364167  38.7013090  12.6334855  26.4733729
  38.6949581  11.3005549  26.1516394  38.9218568  11.8945561  26.6105517
  49.5826296  22.3575515  18.0312251  49.2772113  23.0903572  18.3925567
  48.8632512  21.9513445  17.7505037  49.4313638  22.4057248  18.0425388
  40.5909765  23.8399010  14.3620479  40.6648774  23.6774182  15.2162329
  41.4079272  24.0289200  14.1180961  40.7226124  23.8435753  14.4518505
  55.2828088  18.9968516  17.3580595  55.2152588  19.0164475  16.4883182
  55.2683750  19.8398843  17.5836266  55.2706845  19.1242251  17.2633072
  34.3515522  24.1856873  11.3914923  33.5253640  24.4318610  11.2649202
  34.4127513  24.1068954  12.2576981  34.2389689  24.2101822  11.5003867
  36.5691546  10.2525814  12.3510363  35.7013971  10.3248414  12.4167972
  36.8566750  11.0547893  12.5398338  36.4831294  10.3819961  12.3885130
  45.6924435  10.4003674  20.6821685  46.4378027  10.2113484  20.2685110
  45.2761739  10.9261912  20.1235541  45.7409409  10.4505819  20.5386258
  39.1314351  26.8033753   9.0933953  39.4212649  26.4122735   8.3693179
  39.8617832  26.9850458   9.5339228  39.2821235  26.7727567   9.0516760
  53.0686705  17.7712902  15.6327190  53.6194627  17.1380971  15.8724282
  53.0530821  18.3028295  16.3242694  53.1471902  17.7561850  15.7706048
  39.7209096  21.6051499  20.1787083  39.2220790  22.3167267  20.2571972
  40.5309321  21.9252166  20.1405246  39.7665203  21.7578348  20.1843652
  37.0720267  28.7801136  12.1594102  36.8520562  28.4898491  12.9520769
  36.8514789  28.1216091  11.6312015  37.0067861  28.6400844  12.1983011
  35.9837214  20.8674452  14.4249804  35.6950462  20.2411924  14.9595531
  36.8520562  20.8094740  14.4914485  36.0697466  20.7661997  14.5140759
  46.7715112  16.0109236  14.7431786  46.4279877  15.2899571  15.0939036
  46.8708154  15.8023087  13.9010144  46.7357154  15.8733439  14.6703466
  39.2388222  30.1530526  10.9424795  39.8912280  29.6206968  11.1715821
  38.5413831  29.7999178  11.3292669  39.2318940  30.0220049  11.0336963
  36.1869487  22.5069703  10.3492169  36.9415455  22.8882742  10.5627632
  35.5940100  22.9580847  10.8038866  36.2106201  22.6298531  10.4475048
  47.2328141  22.4734940  10.2855774  47.7986173  23.1328150  10.2014317
  46.5856044  22.8184638  10.7572176  47.2206897  22.6216881  10.3428531
  38.6476154  14.4632544  25.4749382  37.8375930  14.7690323  25.3639224
  39.1250841  15.1838126  25.5901966  38.5979633  14.6147145  25.4756453
  37.5067714  23.6778265  15.7232285  36.9848467  23.8178556  16.4084149
  37.8941734  22.9188929  15.9134402  37.4871415  23.5863789  15.8533361
  43.7034719  25.4173724   9.7092853  43.4621395  24.6841585   9.3019918
  43.8836052  25.9660581   9.0559187  43.6942343  25.3896115   9.5523076
  38.9334039  20.7082284  11.1213776  38.7376822  21.3157018  10.5274079
  39.1568385  20.0150228  10.6405450  38.9368680  20.6959809  10.9629856
  37.3312569  17.5937022  11.2394644  38.0535221  17.7578180  10.7798450
  36.8520562  18.3146687  11.1333984  37.3676300  17.7235251  11.1560258
  45.2906077  13.9300821  16.6191329  44.4517178  13.9562099  16.3829592
  45.3610444  14.5771556  17.1996676  45.1774471  14.0296946  16.6700446
  34.9820186  19.9995094  20.3448784  35.4941283  20.2779347  19.6957544
  34.6956529  20.7384388  20.7111597  35.0155049  20.1497448  20.3038662
  43.7375355  10.8286198  11.3518945  44.4401708  10.6293946  10.8738903
  43.4719544  10.0562140  11.6587788  43.8021988  10.6849164  11.3264386
  49.1663601  19.1368807  13.9052571  49.0797575  19.2924233  14.7587350
  48.7114081  19.7806883  13.5311976  49.0866857  19.2544562  13.9759677
  38.5003912  12.0921483  20.4049825  38.3087109  12.1076617  21.2549249
  39.3502507  12.2885157  20.3816480  38.5979633  12.1235834  20.5273120
  32.8850825  14.6212464  18.3833642  32.7436316  13.7696405  18.5078150
  33.1691388  14.6641125  17.5595848  32.9058671  14.5012214  18.2801266
  43.0389417  16.4579554  12.5278130  42.7924131  16.3775305  13.3614919
  43.3674540  15.6733022  12.3340658  43.0510660  16.3305820  12.6225653
  46.9337466  23.1662914  16.3164911  46.7951825  23.8643960  16.8213654
  46.1537464  23.0111570  15.9601093  46.7980693  23.2463080  16.3391186
  45.2715551  19.4659289  22.5687293  45.2663589  18.5939106  22.5729720
  45.9776545  19.6647458  22.0956749  45.3760555  19.3663163  22.4994329
  38.9986444  19.1936273  21.9401113  39.1429820  19.7737481  21.3044223
  39.3462093  19.5712570  22.6450968  39.0713906  19.3356977  21.9500108
  41.1706362  18.3926441  19.7226245  40.4229676  18.5857456  19.3174523
  41.3247887  17.5671661  19.4850366  41.0828789  18.2991553  19.6271651
  38.0714199  27.3839045  18.8062140  38.2203763  26.8241961  18.1535545
  38.8514201  27.4631046  19.1894659  38.2088293  27.3124610  18.7659089
  48.4290839  22.5241167   7.0781411  48.0497647  21.7378305   7.0710700
  47.7657084  23.0728025   6.9353055  48.2749313  22.4885991   7.0562208
  40.5967500  27.5553688  20.0846631  40.5211171  26.8862498  20.6397419
  40.5257359  28.2571476  20.5987297  40.5748107  27.5598595  20.2423479
  41.4108139  12.2876992  20.6121649  41.8680753  13.0200966  20.7394441
  41.4864467  11.8643457  21.3708904  41.4899108  12.3334230  20.7422725
  33.6541130  12.5342812  21.7011092  33.1183319  11.9223170  22.0171860
  33.7158895  13.1090948  22.3544759  33.5836762  12.5289740  21.8446519
  45.8835465   5.4666867  14.4815492  46.0019033   5.9243331  13.7482794
  45.7097640   4.6612128  14.1951709  45.8754635   5.4160639  14.3316425
  41.2537747  26.0754687  10.9170237  42.0187638  25.8064330  10.5952901
  41.1515837  25.5904697  11.6340300  41.3519242  25.9644251  10.9750064
  39.2890516  14.2779096  17.4563473  38.4986591  14.0970556  17.7780808
  39.6851139  13.5006049  17.4393767  39.2307393  14.1366557  17.5016021
  43.7756407  23.1066870   2.8970186  44.5429392  23.1666995   2.4876038
  43.3287716  22.5347312   2.4126505  43.8229835  23.0303446   2.7647897
  44.6734203  21.9121526  15.1822919  43.9979205  21.6806758  15.6836306
  44.6826579  21.3042709  14.5565024  44.5752707  21.7880451  15.1639071
  41.8028347  16.7539355  21.9386972  41.7387488  17.6149312  21.8107108
  41.9425535  16.4371348  21.1382523  41.8143817  16.8339522  21.8015184
  46.6750937  24.7686659   7.4133097  46.7570775  25.5753645   7.0894547
  47.1600680  24.7882618   8.1373870  46.7588095  24.8907321   7.4719995
  40.4847441  19.4471494  16.0803174  40.0609690  19.6475994  15.3442193
  40.3092296  18.6000342  16.1927474  40.3958321  19.3520276  15.9876865
  39.9859134  30.9622007  18.5424632  40.4755064  30.2632797  18.3600296
  39.4143366  30.6645877  19.1300689  39.9743664  30.8148231  18.6025673
  35.7729886  19.9423546  11.5131147  35.9294505  19.8770349  12.3687139
  36.1130479  20.7172098  11.3009827  35.8463120  20.0472744  11.6085741
  42.3109030  19.3181429  10.3824510  42.8524576  18.8151811  10.8463131
  42.6255589  19.2646624   9.5713995  42.4373427  19.2360850  10.3308322
  46.1826138  23.5284077  27.4951422  46.9961003  23.2569226  27.6556555
  46.0221104  23.2291617  26.6911618  46.2796086  23.4439003  27.3996828
  40.4795480  24.7098781   7.6664538  40.5488300  23.8513319   7.8057539
  41.2583935  24.9270662   7.3383563  40.6048330  24.6151645   7.6381696
  43.4598300  14.2117734  20.4346811  43.6740269  13.5728648  19.8810165
  42.8432199  14.6563558  20.0054672  43.4003629  14.1827878  20.2897242
  44.8702968  27.1336482  11.8801032  44.4782759  26.8303197  11.1623898
  45.0256040  27.9705572  11.6905985  44.8356557  27.2120319  11.7457529
  32.3464147  17.1258496  11.8291914  32.7263112  17.5443041  11.1652181
  31.7719512  17.7071952  12.1360757  32.3175472  17.2736355  11.7768655
  45.6237388  15.8206799  21.3730118  44.8114069  15.5132690  21.4543290
  46.0827322  15.3405799  21.9372830  45.5717772  15.7043292  21.4684712
  45.0342642  23.6986471  11.8207062  44.6757297  23.8701114  12.5971095
  44.5481353  24.1599677  11.2635061  44.9101339  23.7925442  11.8532331
  42.8513028   7.3217670  15.4234153  41.9806586   7.2956391  15.3767463
  43.1053370   7.1494862  14.6059999  42.7606588   7.2927813  15.2954290
  42.7190895  17.2266871  26.1558820  43.1890526  17.8508987  26.5426694
  42.7652775  16.5583846  26.7152035  42.7958771  17.2201551  26.2958891
  39.8762169   9.3323898  16.8807624  39.3600657   8.6404090  17.0059203
  39.3156098   9.9994675  16.8270223  39.7168682   9.3287156  16.8913690
  41.9454402   9.8716858  18.7100476  41.5586155   9.8965890  19.4914006
  41.4587340   9.3058537  18.2574993  41.8166911   9.7912609  18.7588380
  46.1947382  24.5890367  22.7674263  46.8327102  24.0950563  22.4336719
  45.5521473  24.5167768  22.1826490  46.1941608  24.5049376  22.6316618
  47.9204382  16.4379513  17.3340179  47.4931990  16.3505862  16.5788278
  47.2830435  16.5457289  17.9195023  47.7633989  16.4412173  17.3085620
  41.6111544   6.7583844  21.0010736  42.2404662   7.2944144  20.7231807
  41.7797407   6.6661203  21.8524302  41.7289339   6.8245206  21.0859264
  41.4125459  11.5455038  23.2737148  42.2398888  11.2740187  23.3295762
  41.4333305  12.3415880  23.6300966  41.5378309  11.6234793  23.3352331
  46.2501638  25.2810175  19.4079620  47.0394016  24.9299240  19.5281701
  46.4245236  26.0946564  19.1456254  46.3921920  25.3496033  19.3867488
  35.9894949  18.6918901  16.4607409  35.1482955  18.5922775  16.6686302
  36.1984957  19.4614381  16.8121729  35.8959641  18.7910944  16.5434723
  33.4670516  16.3138438  14.2892159  33.0727213  16.3881450  13.5142269
  32.9110632  16.6996384  14.8400521  33.3273328  16.3820213  14.2559819
  45.1035462   9.2919732  13.9696038  45.3085056   9.2242040  14.8153035
  44.7761886  10.0978553  13.9017216  45.0850710   9.4005673  14.0855693
  39.8011614  16.6200300  15.7105006  39.4974751  16.0656289  16.3115414
  39.0991034  16.7992510  15.2233040  39.6527823  16.5645083  15.7274712
  38.8577711  13.9300820  10.2749708  39.1337445  13.2119733   9.8627275
  39.4576380  14.5285740  10.0670814  38.9870975  13.9121191  10.1830469
  37.8629965  23.8350021  20.4177104  37.7550319  23.8452083  21.2839162
  38.0725746  24.6604801  20.2282058  37.8780076  23.9591096  20.5181195
  48.3569150   9.8451496  13.4498804  47.7443464  10.3321898  13.8352535
  48.4533325   9.1694987  13.9936455  48.2807048   9.8169805  13.5877662
  35.8803757  21.0862663  17.8799041  35.2891690  21.7272162  17.8502057
  36.6424780  21.5100281  17.8530341  35.9052017  21.2438502  17.8714189
  36.2764379  12.2464661  18.5467059  36.7365861  12.3203591  19.2842183
  36.3220486  13.0445915  18.1966880  36.3514935  12.3758808  18.6039816
  37.9247729  12.9131356  23.1139086  37.5333294  12.2664703  23.5494864
  38.0933592  13.5042791  23.7333342  37.8918639  12.9045624  23.2701792
  51.9994178  20.9168433  18.8776320  52.0577302  21.3655082  19.6236296
  51.3660646  21.3267246  18.4406400  51.9145473  21.0442168  18.9228868
  45.6393273  26.5371975  15.3131066  45.4412961  27.0262789  14.6187277
  45.0180984  26.7413216  15.8915199  45.5180837  26.6388513  15.2954289
  39.7001251  18.3056872   9.6541310  40.4443296  18.6931148   9.8924260
  39.8461947  17.4614297   9.8181798  39.8311836  18.2387345   9.7135280
  41.6180827  10.1007131  14.6873172  40.7716872  10.2729939  14.5614521
  41.6151959   9.2956474  15.0239000  41.4927977  10.0068160  14.7184299
  42.6879127  13.8782345  15.5535230  42.2139081  13.3524107  16.0640540
  43.0597263  13.3311818  14.9850091  42.6729016  13.7198342  15.5450377
  33.0652157  15.8753852  20.9218775  33.9277770  15.7749561  20.8356105
  32.7343940  15.2948561  20.3604347  33.1437354  15.7745479  20.8264181
  48.9515858  18.9384721  16.9642010  48.7114080  18.0991136  16.9684436
  49.4307865  19.0184888  17.6882784  48.9868041  18.8266120  17.0716812
  44.6162627  14.7718900   8.6160983  44.0885645  14.8547644   7.9266692
  45.0758335  15.5136771   8.6125628  44.6064477  14.8939562   8.5135678
  50.9521045  15.7186178  14.9171269  50.7130815  15.6782012  14.0792054
  51.1154946  16.5657330  15.0436990  50.9411348  15.8378263  14.8124751
  47.5567075  20.1036127  20.8476314  48.2801274  19.6508654  20.6687334
  47.2917037  20.3840793  20.0648642  47.6248348  20.0787096  20.7055030
  36.4253943  14.6996301  17.5829193  35.8007013  14.7114693  16.9755146
  36.0899538  15.1756476  18.2320434  36.2839435  14.7714818  17.5885762
  33.1379619  22.7596761  19.0232958  32.6079543  22.0689200  19.0727933
  33.4104712  22.7506946  18.1945666  33.1004341  22.6563893  18.9080374
  44.1699709  23.3422463   7.7470640  44.8933908  23.8080576   7.6035214
  43.7300300  23.4096073   6.9968237  44.2115401  23.4206300   7.6155422
  43.3385864  20.2020006  18.9971329  42.7242857  19.6578056  19.2919965
  43.8553149  19.6884242  18.5177145  43.3241527  20.0456415  18.9695558
  42.5782161  21.2724276  16.7315628  42.1509769  20.6473994  16.2981063
  42.5707106  20.9899197  17.5574635  42.5141303  21.1377056  16.7895456
  35.6944688  16.3089449  19.8004062  35.8538175  15.5532773  20.2055784
  35.5137582  16.8580388  20.4544800  35.6910047  16.2783262  19.9566768
  43.6364991   8.4750684  20.3554851  43.1405553   8.6714358  19.6646418
  44.3934054   8.8743352  20.1843653  43.6751816   8.5628418  20.2274988
  40.9067871  12.1493030  16.9458162  40.9310358  11.6153142  16.2570942
  41.1579345  11.6410339  17.6083753  40.9477790  11.9953934  16.9422807
  28.4175461  19.4324525  16.3801306  28.3118910  19.3871369  15.5153390
  27.6675681  19.7778306  16.6615591  28.2911064  19.4765433  16.2938636
  37.1869193  10.8763848  16.3263906  37.2267565  11.3773055  17.0398614
  36.3618858  10.9674242  16.0569829  37.0708719  10.9645665  16.3914445
  38.6083557  17.3924358  18.6237805  37.7775486  17.5598176  18.4173053
  38.5535074  17.0160309  19.4086691  38.4772972  17.3614089  18.7086333
  36.4167340  10.8833251  24.2594216  37.0420043  10.3395384  24.5323648
  35.9617820  10.4028169  23.6902006  36.4415601  10.7322732  24.2155810
  36.9819601  15.6679950   9.1527923  37.1222562  16.1652414   9.8556564
  37.4802133  14.9666244   9.2942137  37.0760681  15.6381928   9.2779502
  49.9902389  19.0662538  19.3506864  50.5820229  19.7059789  19.3825062
  50.4261383  18.3685575  19.6398931  50.1420820  19.0580888  19.3987697
  41.8195779  23.4879910  19.9764758  41.3120870  24.0415757  20.4205388
  41.5222425  23.5488200  19.1583532  41.7000663  23.5786222  19.9213215
  43.9857961  11.8533230  18.8189421  44.4113032  11.4005757  18.2072947
  43.3714954  11.2993301  19.0954208  43.9586606  11.7047206  18.7694446
  33.5172811  18.7314901   9.7510046  34.0265040  19.3279409  10.1321351
  33.9907083  18.4640875   9.0686465  33.6616186  18.7800717   9.7064569
  44.4303559  27.4043168   7.9068701  43.7132869  27.2304030   7.4415939
  45.0810296  27.1695740   7.3744187  44.4205409  27.3438961   7.7597919
  42.4252184   8.3248330  12.2279998  41.7820502   8.1745976  12.7965136
  42.0851591   8.0790675  11.4629103  42.2797261   8.2660452  12.1983013
  47.0151530  16.2807757  11.6510007  46.3442720  16.8237459  11.5223072
  47.7091280  16.7502612  11.4091701  47.0180398  16.4306028  11.5965534
  41.0638264  28.4204469  16.8821765  40.8403918  27.6623298  17.2505791
  40.5748107  28.4502490  16.1602205  40.9581713  28.3126693  16.8298506
  47.1779658  12.7363640  14.5600380  47.5307268  12.3093363  15.2346178
  46.3194459  12.6514484  14.6901456  47.1029102  12.6608381  14.6795390
  35.8763343  15.3671160  12.6183226  35.1575332  15.7835293  12.8856090
  36.2475705  15.9325399  12.0674864  35.8255274  15.5120441  12.5766033
  45.1762923  15.9999009  18.5085222  45.1560851  15.8182304  19.3620001
  45.2242124  16.8711027  18.4844806  45.1797564  16.1015547  18.6308517
  43.1209253  22.5886201  24.4333699  43.0805108  21.9435878  23.8478854
  43.9332571  22.5322818  24.7459111  43.2352407  22.4845168  24.3930648
  39.7116721  28.6404927  14.3358849  39.2977119  27.9779057  13.9462691
  40.3964095  28.7882786  13.8154544  39.7515092  28.5645585  14.2015347
  43.0782015  27.7995012  15.0882466  42.6798298  27.9097282  14.3203286
  42.4633234  28.0077078  15.6709026  42.9280904  27.8468580  15.0613765
  41.6509917  14.4069160   7.9556606  41.0574756  14.7286156   7.4041173
  41.6885195  13.5610255   7.7477712  41.5684306  14.3293488   7.8439377
  48.6103718   7.8582052  15.4884692  48.1034582   7.1511192  15.4205870
  49.4071151   7.5275241  15.6185769  48.6530957   7.7055204  15.4983687
  44.5267733  14.3648664  11.3858356  44.2981426  14.3881366  10.5436714
  44.7865810  13.5406131  11.5053367  44.5313922  14.2464744  11.2783554
  38.8086962  16.2183137  20.9883456  38.2965865  15.6104320  21.3468488
  38.6366458  16.9339730  21.4557432  38.7076599  16.2346437  21.1099680
  33.6552677  14.6620713  23.6385818  33.4855267  15.3222088  23.0934025
  33.2118626  14.8727274  24.3598307  33.5652010  14.7906695  23.6647447
  37.5812496  12.9025211  12.6812552  38.0569862  13.2642291  12.0462733
  37.0801096  13.5581678  12.9612694  37.5777855  13.0519400  12.6289293
  50.8123858  22.3746979   8.4725557  51.1957463  23.1238335   8.7023654
  50.0167971  22.6212799   8.2137546  50.7517640  22.5216673   8.4683130
  42.6856032  14.1407382  23.4285712  43.2427462  13.9121192  22.7964177
  42.3617097  14.9013048  23.1520924  42.7202442  14.2191219  23.2942209
  30.5554741  17.5667578  18.8974308  30.0081461  16.8968224  19.0155176
  31.3447119  17.1997426  18.9617775  30.5906925  17.4132565  18.9243008
  40.4039150  17.2275035  24.3937719  41.1550476  17.5426712  24.7077273
  40.5961726  17.0254206  23.5671641  40.5430564  17.2442417  24.3181115
  47.2524440  13.3548602  11.6361514  47.2518666  13.1997258  12.4945791
  47.0480620  14.2011589  11.5802900  47.2224218  13.4569222  11.7549454
  29.3141711  16.7788386  16.0520331  29.1363472  16.3264995  16.7775246
  29.0260733  17.5814548  16.2358808  29.2454664  16.8310944  16.1863834
  44.9765292  18.0346104  15.2897721  45.4718957  17.3169099  15.2501741
  44.1665067  17.7316901  15.1752208  44.9309185  17.8843750  15.2671447
  40.4223903  21.8843917   7.4394726  39.6135226  21.5610590   7.3928035
  40.9298812  21.1777139   7.3722974  40.3773570  21.7325233   7.4225020
  31.0514180  19.3116110  13.1642090  30.1859700  19.3001800  13.0524861
  31.1512996  19.1246333  14.0113229  30.9388347  19.2822171  13.2731034
  47.0417111  20.7849791  17.9774850  47.4672182  20.2624213  17.4245275
  46.6774030  21.3830628  17.4563473  47.0503713  20.7960018  17.8183860
  36.6771190  29.0814009  16.7372195  36.9917749  29.8950397  16.7449977
  37.0864604  28.6964227  17.4054355  36.7839288  29.1442711  16.8376287
  43.6295710  24.4984055  14.3076007  44.1006888  25.2124318  14.4765993
  43.9655889  23.8982805  14.8435877  43.7490825  24.5155520  14.4108383
  40.5465205   9.2711526  21.2634102  40.6793111   8.4742519  21.5915078
  40.9310358   9.7977929  21.8432378  40.6221534   9.2311443  21.3977605
  44.2669656  24.2901989  21.0703700  43.7190602  23.6659873  20.8023765
  44.7282685  24.4796261  20.3547779  44.2536866  24.2261040  20.9254131
  43.6197560   6.1941852  17.8615195  42.8143524   6.0839582  18.1783034
  43.4904296   6.2954308  17.0045061  43.4817693   6.1925522  17.7823236
  47.0763521  12.3587344  18.4554892  46.4926510  12.8596550  18.0432460
  47.3967815  11.8516900  17.8219216  47.0376696  12.3579179  18.3013400
  38.2053652   9.2670701  19.5111996  38.7498065   8.9261828  20.1016338
  38.2590587  10.1256163  19.6533281  38.2942771   9.3425960  19.6193869
  34.0184211  23.0287117  16.3850804  34.6229068  22.9882951  15.7564625
  33.8111523  23.8758269  16.4154860  34.0773108  23.1475120  16.2966920
  43.8327983  25.2953062  17.6013041  44.6526356  25.1516028  17.8629336
  43.5522060  25.9199261  18.1429479  43.9124726  25.3663414  17.7200981
  29.2535493  22.0121735  16.2549727  29.1559771  21.2018006  16.5639784
  30.0364362  21.9913528  15.8695995  29.3551629  21.8888825  16.2436590
  60.3041633  32.9517914  10.5655918  60.2735637  33.8062551  10.7374187
  60.9022982  32.6513206  11.1242061  60.3878791  33.0334410  10.6730720
  53.5041318  32.0393565  15.3208848  52.6479213  32.2002063  15.3717965
  53.5508972  31.1685629  15.3413909  53.3840429  31.9344367  15.3314914
  47.8882458  41.5756283  11.0846080  47.1365357  41.1971821  10.8562125
  48.3368469  41.6074716  10.3364890  47.8432124  41.5241890  10.9403582
  56.8135034  38.3080091  24.9269304  57.5201802  37.8132121  25.0556239
  57.0022970  38.7489172  24.1971962  56.9462940  38.2998441  24.8378350
  53.3407417  41.9981652   6.5131627  53.0058786  42.6758574   6.0775849
  53.8534288  41.6086964   5.9248498  53.3672999  42.0406230   6.3618418
  52.8811709  43.9495921  12.4542738  53.2651088  44.5182820  11.9147513
  52.8170850  43.2245431  11.9748554  52.9285136  43.9271384  12.3036601
  56.3493139  34.0985609  17.9640500  56.8949099  34.7770695  18.0234469
  56.2910015  33.9573070  17.1042081  56.4209053  34.1777610  17.8452560
  49.4667214  41.5874675  13.3508852  49.5677577  40.7775029  13.6605980
  48.8708959  41.4931621  12.7208531  49.3939752  41.4539703  13.3035091
  58.1258208  35.5270216   8.8374227  58.0097733  36.2777902   9.2666366
  58.9214094  35.2694169   9.0870314  58.2262797  35.6005063   8.9378319
  49.3067953  46.5052264  14.7523708  49.9505409  46.9465428  15.1419867
  49.6324209  45.7005690  14.6653967  49.4499782  46.4517459  14.7969185
  42.6632258  37.6094961  12.9761186  42.4282442  36.7762614  12.8693455
  42.8017899  37.8899627  12.1622387  42.6487920  37.5278465  12.8403541
  44.9622345  29.7780692  15.8745493  44.3427377  29.1873339  15.7055508
  44.8606209  30.3692127  15.2409817  44.8560021  29.7784775  15.7550483
  50.0088533  39.5164239  10.1243570  50.3304374  40.0569446   9.5204878
  50.6560630  38.9461010  10.2565860  50.1514588  39.5123414  10.0550605
  52.0590241  31.5180234  10.2077957  52.7570406  31.6968361  10.6999420
  52.3742574  30.9950573   9.5848346  52.2085578  31.4674006  10.1879967
  44.6891479  33.3232974  18.1189062  44.5650175  33.9095419  18.7538881
  45.3409763  32.8293169  18.4201337  44.7665128  33.3371778  18.2574992
  52.2478177  37.9050679  10.1957748  52.6871812  37.2967779  10.6412521
  52.0982839  37.5258052   9.4243213  52.2899642  37.7589150  10.1476915
  49.7149820  36.4994691  17.3976574  50.3598822  36.0067134  17.0787522
  49.9551597  36.6419477  18.2242652  49.8460405  36.4472133  17.4726107
  52.2535911  39.3449597  17.0483466  52.5359154  38.5501002  16.8270222
  52.9822071  39.8230184  17.0688527  52.4025475  39.2984194  17.0186481
  50.2317105  26.8872631  14.2899231  49.9020435  27.3383774  13.6202930
  49.5562107  26.8088794  14.8372238  50.0827541  26.9423766  14.2722454
  55.8487513  36.2577860   7.1488517  55.7638808  37.1138827   7.2938086
  56.3371896  35.9822184   7.8170676  55.9076410  36.3435182   7.2690599
  57.4393512  22.8758153  12.5348842  57.1246953  23.5661632  12.9669264
  56.9220454  22.8202936  11.8334343  57.3157983  22.9693042  12.4945791
  56.7805946  32.8762654   8.6486252  56.2517418  33.0922288   9.3083559
  57.3030966  33.5698793   8.5687222  56.7794399  33.0105791   8.7341852
  62.2353999  38.4508959  14.0219297  61.4051702  38.6619602  14.1852713
  62.1863252  37.6246013  13.7461580  62.1060735  38.3598565  14.0056662
  48.6705554  36.7725871   7.4493720  48.0862769  37.2775903   7.8559584
  48.2675649  36.5468258   6.7090312  48.5244858  36.8134119   7.3998746
  44.2249583  42.4880632  14.2517392  43.7417161  43.2131122  14.2276975
  45.0372901  42.7856762  14.3627550  44.2740330  42.6382986  14.2644671
  50.2963737  41.2812813  16.8567206  49.7790678  40.9220228  16.2528514
  50.9938128  40.7574987  16.8673272  50.3229318  41.1510501  16.7697465
  53.9527329  41.7307627  22.8183379  54.0410675  41.5433767  23.6661590
  54.3817041  41.0845057  22.4188226  54.0289431  41.6070635  22.8855131
  51.5197789  41.0138787  21.8001042  50.9568623  40.6011397  22.3240703
  52.2818812  40.9391693  22.2194185  51.5492237  40.9416188  21.9394042
  53.1282769  33.0191523   5.9262641  53.3678772  33.2269507   5.1137984
  53.4498609  32.2149032   6.0351585  53.2119926  32.9305624   5.8223194
  48.4373059  24.9484919   9.7722179  49.1919027  25.3163236   9.5339229
  48.2600593  25.3224473  10.5401358  48.5227537  25.0583107   9.8507067
  47.0793780  43.0036808  14.4037672  47.7814359  42.4888797  14.4610428
  46.9991263  43.3310960  15.2084547  47.1717540  42.9751034  14.5310464
  61.7307957  31.0979359  17.8169718  60.8936379  31.1681547  18.0517313
  61.6996188  31.1003854  16.9444021  61.6026240  31.1089586  17.7229266
  48.1272687  33.2412395  23.5318087  48.2993190  33.1318290  24.3803368
  48.6642044  33.8866801  23.2949279  48.2317691  33.3204397  23.6223184
  46.7930123  27.3555238   6.4700292  46.6105697  27.5727119   5.6441285
  47.6555736  27.4694251   6.5258906  46.8934713  27.4045136   6.3554779
  46.4044555  39.1943160  13.9123280  47.2433455  39.4266093  13.9597041
  46.4356325  38.3247472  13.8430315  46.5326273  39.1000107  13.9087924
  47.0297258  39.6144035  18.2136585  47.5695483  39.4715166  18.8839958
  46.3467205  40.0140786  18.5820612  47.0089412  39.6523706  18.3671007
  52.4729843  24.3581649   9.5049316  53.2016003  24.1797604   9.0587472
  52.5624736  25.1999728   9.7156494  52.5936505  24.4565527   9.4702833
  56.4538143  35.2935036  13.4081610  57.2095658  35.7266550  13.4470518
  56.5600468  34.6439806  13.9816246  56.5808314  35.2612520  13.4979635
  59.4918314  39.1208313  14.1584013  59.0553546  39.1245056  14.9142984
  59.1581230  39.8013812  13.7263590  59.3780934  39.2220769  14.2064845
  54.0647388  41.1616646  25.4827163  54.8487805  41.2747494  25.8482905
  53.8643983  40.3357783  25.6785849  54.1513413  41.0563365  25.5661549
  42.4334403  35.8344326  18.3671007  42.1672819  35.0183443  18.5261997
  42.4472968  35.8797482  17.4966522  42.3959126  35.7201231  18.2624489
  59.4115797  26.1622141  16.4013441  60.0541706  26.2320246  16.9875356
  59.6638818  25.4951364  15.8992982  59.5437929  26.0748490  16.4140720
  46.3392150  30.6329411   4.9822765  45.6250328  30.3467590   5.3945197
  46.8236119  30.9726036   5.6229152  46.3051514  30.6411060   5.1378400
  47.1833010  29.3722704  21.0138015  46.4904807  28.9019684  21.2598746
  47.7993337  29.1461009  21.5879722  47.1717540  29.2689836  21.1347167
  54.2217781  43.0726748  19.1293619  53.4233027  42.8326248  19.3867487
  54.6703793  43.1241141  19.8760666  54.1692393  43.0449139  19.2778543
  62.6262661  35.8389233  13.0503650  63.2879095  35.2779902  12.9499558
  61.9854073  35.3441264  13.3756341  62.6291528  35.6825642  13.0835990
  53.5139468  39.1359365   5.3584573  53.9290617  38.8044388   4.6669069
  52.6831398  38.9028267   5.2304710  53.4527477  39.0530620   5.2375421
  42.8427817  36.6203106  15.6482751  42.6603390  36.5949992  14.7955043
  43.5777486  37.0902043  15.6871660  42.9241881  36.6864468  15.5280670
  58.9127491  36.8554616  12.7915639  59.1483081  36.9999814  11.9642489
  59.0617055  37.6197024  13.1847152  58.9693295  36.9893670  12.7279243
  45.9073569  33.3388108  22.1564860  46.6313541  33.3241139  22.6429754
  46.0089705  34.0483464  21.6586828  46.0291778  33.4412812  22.1543647
  60.7417948  35.6956281  10.6285242  61.0726165  36.2283922  10.0225337
  61.3151036  35.7495169  11.2847193  60.8751627  35.7825850  10.6363024
  55.9549837  33.5421184  11.3108823  56.0496692  34.2810478  11.7648448
  55.3308681  33.1138660  11.7443387  55.8758867  33.5882505  11.4416970
  54.2102311  36.7207397  21.9599103  54.7841173  36.0834641  22.1147667
  54.1317115  36.7211479  21.0908761  54.2835546  36.6272508  21.8545514
  42.8098727  33.4996606  15.7981818  43.3872230  33.3633057  16.4374063
  42.1112789  33.0432390  16.0527402  42.7919749  33.4118872  15.9304107
  56.2072858  35.3869924   4.5445775  56.1253021  35.4572111   5.4100762
  56.8452579  35.9499668   4.3529515  56.2892696  35.4808895   4.6435724
  49.5666030  35.1530662  14.0120301  49.3085274  34.3202397  13.9851600
  49.6214512  35.3788275  13.1712801  49.5365808  35.0628433  13.8840438
  54.6467080  27.2559113  14.1124394  53.9423407  26.7668298  14.2708313
  54.6952054  27.2681587  13.2412838  54.5497131  27.1848761  14.0063733
  48.5400742  32.7068424  14.4985196  47.9650333  32.8660593  15.1349157
  48.1636418  32.0703833  14.0353646  48.4003554  32.6366237  14.5239754
  52.2074030  31.1791774  19.3577574  51.8188463  30.7545991  18.7029765
  51.5428729  31.4273923  19.8654601  52.0520958  31.1530495  19.3365442
  61.8497300  30.9366778  12.1325404  61.5933864  30.1246720  11.9423287
  62.6926614  30.9444345  11.9055591  61.9363325  30.8178776  12.0710221
  38.2857561  32.3508499  12.5129636  38.3717813  31.9740367  13.2943166
  38.9133358  31.9768945  12.0349595  38.3914112  32.2393981  12.5575114
  56.0300392  24.8766402  16.8701558  56.4110904  24.1944573  17.2569432
  55.2263676  24.5876004  16.6877223  55.9676854  24.7333451  16.9005614
  53.3112969  35.4090378   7.5554381  54.1253608  35.7005271   7.4437152
  53.2472110  34.7550241   6.9812674  53.4215708  35.3555573   7.4543218
  59.5322459  38.0916374  21.9683957  59.2961096  37.2604439  21.8496017
  60.1765688  38.0401982  22.5538801  59.5917130  37.9614062  22.0369850
  49.1820877  38.8811896  12.6826693  49.8194824  38.6423643  13.2278486
  49.6075949  39.0849055  11.9479854  49.3397043  38.8762906  12.6543850
  43.8733519  41.1200232  16.5660997  43.9137665  41.3915083  15.7380776
  44.4328043  41.6442140  16.9818785  43.9616865  41.2375987  16.5052885
  49.8223692  34.1014185   7.0201582  50.2068845  33.8821892   7.7718128
  49.5735312  34.9277131   7.1502659  49.8425765  34.1912332   7.1502659
  49.9892232  27.3820601  26.7364167  49.6745673  28.1520163  26.4733729
  49.6682165  26.8190857  26.1516394  49.8951151  27.4130869  26.6105517
  60.5558879  37.8760823  18.0312251  60.2504697  38.6088880  18.3925567
  59.8365095  37.4698753  17.7505037  60.4046222  37.9242556  18.0425388
  51.5642349  39.3584318  14.3620479  51.6381357  39.1959490  15.2162329
  52.3811855  39.5474508  14.1180961  51.6958708  39.3621061  14.4518505
  66.2560672  34.5153824  17.3580595  66.1885172  34.5349783  16.4883182
  66.2416334  35.3584151  17.5836266  66.2439428  34.6427558  17.2633072
  45.3248106  39.7042181  11.3914923  44.4986223  39.9503918  11.2649202
  45.3860097  39.6254262  12.2576981  45.2122273  39.7287130  11.5003867
  47.5424129  25.7711122  12.3510363  46.6746555  25.8433722  12.4167972
  47.8299334  26.5733201  12.5398338  47.4563877  25.9005269  12.3885130
  56.6657018  25.9188982  20.6821685  57.4110610  25.7298792  20.2685110
  56.2494323  26.4447219  20.1235541  56.7141992  25.9691127  20.5386258
  50.1046935  42.3219061   9.0933953  50.3945233  41.9308043   8.3693179
  50.8350415  42.5035766   9.5339228  50.2553819  42.2912875   9.0516760
  64.0419289  33.2898210  15.6327190  64.5927211  32.6566279  15.8724282
  64.0263404  33.8213603  16.3242694  64.1204485  33.2747158  15.7706048
  50.6941680  37.1236807  20.1787083  50.1953373  37.8352575  20.2571972
  51.5041904  37.4437474  20.1405246  50.7397787  37.2763656  20.1843652
  48.0452850  44.2986444  12.1594102  47.8253146  44.0083799  12.9520769
  47.8247372  43.6401399  11.6312015  47.9800444  44.1586152  12.1983011
  46.9569797  36.3859760  14.4249804  46.6683046  35.7597232  14.9595531
  47.8253145  36.3280048  14.4914485  47.0430049  36.2847305  14.5140759
  57.7447695  31.5294544  14.7431786  57.4012461  30.8084879  15.0939036
  57.8440738  31.3208395  13.9010144  57.7089738  31.3918747  14.6703466
  50.2120806  45.6715834  10.9424795  50.8644864  45.1392276  11.1715821
  49.5146415  45.3184486  11.3292669  50.2051524  45.5405357  11.0336963
  47.1602071  38.0255011  10.3492169  47.9148039  38.4068050  10.5627632
  46.5672683  38.4766155  10.8038866  47.1838784  38.1483839  10.4475048
  58.2060724  37.9920248  10.2855774  58.7718757  38.6513458  10.2014317
  57.5588628  38.3369946  10.7572176  58.1939481  38.1402189  10.3428531
  49.6208738  29.9817852  25.4749382  48.8108514  30.2875631  25.3639224
  50.0983425  30.7023434  25.5901966  49.5712217  30.1332453  25.4756453
  48.4800297  39.1963573  15.7232285  47.9581051  39.3363864  16.4084149
  48.8674318  38.4374237  15.9134402  48.4603998  39.1049097  15.8533361
  45.4691481  29.2469381   9.7927239  45.1816277  28.8770652   9.0559187
  46.1561950  29.7164237   9.5310944  45.5280379  29.2616351   9.6442315
  54.6767302  40.9359032   9.7092853  54.4353978  40.2026893   9.3019918
  54.8568635  41.4845889   9.0559187  54.6674926  40.9081423   9.5523076
  49.9066623  36.2267592  11.1213776  49.7109406  36.8342326  10.5274079
  50.1300969  35.5335536  10.6405450  49.9101264  36.2145117  10.9629856
  48.3045153  33.1122330  11.2394644  49.0267805  33.2763488  10.7798450
  47.8253146  33.8331994  11.1333984  48.3408884  33.2420559  11.1560258
  56.2638661  29.4486128  16.6191329  55.4249761  29.4747407  16.3829592
  56.3343028  30.0956864  17.1996676  56.1507054  29.5482254  16.6700446
  45.9552770  35.5180402  20.3448784  46.4673867  35.7964655  19.6957544
  45.6689112  36.2569696  20.7111597  45.9887633  35.6682756  20.3038662
  54.7107939  26.3471505  11.3518945  55.4134292  26.1479254  10.8738903
  54.4452128  25.5747448  11.6587788  54.7754571  26.2034471  11.3264386
  43.0419676  30.0250594  10.6412520  43.1435812  30.8276755  10.9693496
  43.8375563  29.8237930  10.3435601  43.1747582  30.1136493  10.6447876
  49.4736495  27.6106791  20.4049825  49.2819692  27.6261925  21.2549249
  50.3235091  27.8070465  20.3816480  49.5712217  27.6421142  20.5273120
  43.8583408  30.1397772  18.3833642  43.7168900  29.2881713  18.5078150
  44.1423972  30.1826433  17.5595848  43.8791254  30.0197522  18.2801266
  54.0122001  31.9764862  12.5278130  53.7656715  31.8960613  13.3614919
  54.3407124  31.1918330  12.3340658  54.0243244  31.8491128  12.6225653
  57.9070049  38.6848222  16.3164911  57.7684409  39.3829267  16.8213654
  57.1270047  38.5296878  15.9601093  57.7713276  38.7648388  16.3391186
  56.2448134  34.9844597  22.5687293  56.2396173  34.1124414  22.5729720
  56.9509128  35.1832766  22.0956749  56.3493138  34.8848471  22.4994329
  49.9719028  34.7121581  21.9401113  50.1162404  35.2922789  21.3044223
  50.3194676  35.0897878  22.6450968  50.0446489  34.8542285  21.9500108
  52.1438945  33.9111749  19.7226245  51.3962259  34.1042764  19.3174523
  52.2980470  33.0856969  19.4850366  52.0561373  33.8176861  19.6271651
  49.0446783  42.9024353  18.8062140  49.1936347  42.3427269  18.1535545
  49.8246785  42.9816354  19.1894659  49.1820876  42.8309918  18.7659089
  59.4023422  38.0426475   7.0781411  59.0230231  37.2563613   7.0710700
  58.7389668  38.5913332   6.9353055  59.2481897  38.0071299   7.0562208
  51.5700083  43.0738996  20.0846631  51.4943754  42.4047806  20.6397419
  51.4989943  43.7756784  20.5987297  51.5480690  43.0783903  20.2423479
  52.3840722  27.8062300  20.6121649  52.8413336  28.5386274  20.7394441
  52.4597051  27.3828765  21.3708904  52.4631692  27.8519538  20.7422725
  56.8568048  20.9852175  14.4815492  56.9751616  21.4428638  13.7482794
  56.6830224  20.1797436  14.1951709  56.8487219  20.9345947  14.3316425
  52.2270330  41.5939994  10.9170237  52.9920221  41.3249638  10.5952901
  52.1248420  41.1090005  11.6340300  52.3251826  41.4829559  10.9750064
  50.2623100  29.7964404  17.4563473  49.4719175  29.6155864  17.7780808
  50.6583723  29.0191356  17.4393767  50.2039976  29.6551865  17.5016021
  54.7488991  38.6252178   2.8970186  55.5161976  38.6852303   2.4876038
  54.3020300  38.0532620   2.4126505  54.7962418  38.5488754   2.7647897
  55.6466786  37.4306834  15.1822919  54.9711788  37.1992066  15.6836306
  55.6559162  36.8228017  14.5565024  55.5485291  37.3065759  15.1639071
  52.7760930  32.2724663  21.9386972  52.7120072  33.1334619  21.8107108
  52.9158118  31.9556656  21.1382523  52.7876400  32.3524830  21.8015184
  57.6483521  40.2871966   7.4133097  57.7303358  41.0938953   7.0894547
  58.1333263  40.3067926   8.1373870  57.7320679  40.4092629   7.4719995
  51.4580024  34.9656802  16.0803174  51.0342273  35.1661301  15.3442193
  51.2824879  34.1185650  16.1927474  51.3690905  34.8705584  15.9876865
  50.9591718  46.4807315  18.5424632  51.4487648  45.7818105  18.3600296
  50.3875950  46.1831185  19.1300689  50.9476248  46.3333539  18.6025673
  46.7462469  35.4608854  11.5131147  46.9027088  35.3955657  12.3687139
  47.0863062  36.2357406  11.3009827  46.8195704  35.5658052  11.6085741
  53.2841614  34.8366737  10.3824510  53.8257159  34.3337118  10.8463131
  53.5988173  34.7831932   9.5713995  53.4106011  34.7546158  10.3308322
  57.1558721  39.0469385  27.4951422  57.9693587  38.7754534  27.6556555
  56.9953688  38.7476925  26.6911618  57.2528670  38.9624311  27.3996828
  51.4528064  40.2284089   7.6664538  51.5220884  39.3698627   7.8057539
  52.2316519  40.4455970   7.3383563  51.5780914  40.1336953   7.6381696
  54.4330883  29.7303042  20.4346811  54.6472853  29.0913956  19.8810165
  53.8164782  30.1748866  20.0054672  54.3736212  29.7013186  20.2897242
  55.8435551  42.6521790  11.8801032  55.4515343  42.3488505  11.1623898
  55.9988623  43.4890880  11.6905985  55.8089141  42.7305627  11.7457529
  43.3196731  32.6443804  11.8291914  43.6995696  33.0628349  11.1652181
  42.7452096  33.2257260  12.1360757  43.2908056  32.7921663  11.7768655
  56.5969971  31.3392107  21.3730118  55.7846653  31.0317997  21.4543290
  57.0559906  30.8591107  21.9372830  56.5450356  31.2228599  21.4684712
  56.0075226  39.2171779  11.8207062  55.6489881  39.3886422  12.5971095
  55.5213937  39.6784985  11.2635061  55.8833923  39.3110750  11.8532331
  53.8245612  22.8402978  15.4234153  52.9539170  22.8141699  15.3767463
  54.0785953  22.6680170  14.6059999  53.7339172  22.8113121  15.2954290
  50.7963591  34.8970944   4.3607296  51.0856116  35.6735827   4.6350871
  50.8835390  34.3859676   5.0621796  50.8517848  34.9362863   4.5049794
  53.6923479  32.7452179  26.1558820  54.1623110  33.3694295  26.5426694
  53.7385359  32.0769154  26.7152035  53.7691355  32.7386859  26.2958891
  50.8494752  24.8509206  16.8807624  50.3333241  24.1589397  17.0059203
  50.2888681  25.5179983  16.8270223  50.6901266  24.8472464  16.8913690
  52.9186986  25.3902166  18.7100476  52.5318739  25.4151198  19.4914006
  52.4319923  24.8243845  18.2574993  52.7899495  25.3097917  18.7588380
  57.1679965  40.1075675  22.7674263  57.8059686  39.6135871  22.4336719
  56.5254057  40.0353075  22.1826490  57.1674192  40.0234684  22.6316618
  58.8936965  31.9564821  17.3340179  58.4664573  31.8691170  16.5788278
  58.2563018  32.0642596  17.9195023  58.7366573  31.9597481  17.3085620
  52.5844128  22.2769152  21.0010736  53.2137246  22.8129452  20.7231807
  52.7529990  22.1846510  21.8524302  52.7021922  22.3430514  21.0859264
  52.3858042  27.0640346  23.2737148  53.2131472  26.7925495  23.3295762
  52.4065888  27.8601188  23.6300966  52.5110892  27.1420100  23.3352331
  57.2234222  40.7995483  19.4079620  58.0126600  40.4484548  19.5281701
  57.3977820  41.6131872  19.1456254  57.3654503  40.8681340  19.3867488
  46.9627532  34.2104209  16.4607409  46.1215539  34.1108083  16.6686302
  47.1717540  34.9799689  16.8121729  46.8692225  34.3096252  16.5434723
  44.4403099  31.8323746  14.2892159  44.0459797  31.9066758  13.5142269
  43.8843216  32.2181692  14.8400521  44.3005912  31.9005521  14.2559819
  56.0768046  24.8105040  13.9696038  56.2817639  24.7427348  14.8153035
  55.7494470  25.6163861  13.9017216  56.0583294  24.9190980  14.0855693
  50.7744197  32.1385608  15.7105006  50.4707335  31.5841596  16.3115414
  50.0723618  32.3177818  15.2233040  50.6260407  32.0830391  15.7274712
  49.8310294  29.4486128  10.2749708  50.1070029  28.7305041   9.8627275
  50.4308964  30.0471048  10.0670814  49.9603559  29.4306499  10.1830469
  48.8362548  39.3535329  20.4177104  48.7282903  39.3637391  21.2839162
  49.0458330  40.1790109  20.2282058  48.8512659  39.4776404  20.5181195
  53.3320815  27.1199645   8.5496303  53.7864561  27.2910206   9.2744147
  53.8060860  26.5067756   8.1494079  53.4689135  27.0550531   8.5970065
  46.8536340  36.6047971  17.8799041  46.2624273  37.2457470  17.8502057
  47.6157364  37.0285589  17.8530341  46.8784601  36.7623810  17.8714189
  47.2496963  27.7649969  18.5467059  47.7098444  27.8388899  19.2842183
  47.2953070  28.5631223  18.1966880  47.3247518  27.8944116  18.6039816
  48.8980313  28.4316664  23.1139086  48.5065878  27.7850011  23.5494864
  49.0666175  29.0228099  23.7333342  48.8651223  28.4230932  23.2701792
  62.9726762  36.4353741  18.8776320  63.0309885  36.8840390  19.6236296
  62.3393229  36.8452554  18.4406400  62.8878057  36.5627476  18.9228868
  56.6125856  42.0557283  15.3131066  56.4145545  42.5448097  14.6187277
  55.9913567  42.2598524  15.8915199  56.4913421  42.1573821  15.2954289
  50.6733835  33.8242180   9.6541310  51.4175880  34.2116456   9.8924260
  50.8194531  32.9799605   9.8181798  50.8044420  33.7572653   9.7135280
  52.5913410  25.6192439  14.6873172  51.7449455  25.7915246  14.5614521
  52.5884543  24.8141782  15.0239000  52.4660560  25.5253468  14.7184299
  53.6611711  29.3967653  15.5535230  53.1871665  28.8709415  16.0640540
  54.0329846  28.8497126  14.9850091  53.6461600  29.2383650  15.5450377
  59.9248441  34.4570029  16.9642010  59.6846664  33.6176444  16.9684436
  60.4040448  34.5370195  17.6882784  59.9600625  34.3451428  17.0716812
  55.5895210  30.2904208   8.6160983  55.0618229  30.3732952   7.9266692
  56.0490918  31.0322079   8.6125628  55.5797061  30.4124870   8.5135678
  61.9253628  31.2371486  14.9171269  61.6863398  31.1967320  14.0792054
  62.0887529  32.0842638  15.0436990  61.9143932  31.3563571  14.8124751
  58.5299658  35.6221435  20.8476314  59.2533857  35.1693962  20.6687334
  58.2649621  35.9026101  20.0648642  58.5980932  35.5972404  20.7055030
  47.3986527  30.2181609  17.5829193  46.7739597  30.2300001  16.9755146
  47.0632122  30.6941784  18.2320434  47.2572019  30.2900126  17.5885762
  47.5828275  28.5606727   3.6401878  47.2341080  29.2126452   4.1033428
  47.1024721  28.5463840   2.9125750  47.4598519  28.6549781   3.6012970
  44.1112202  38.2782069  19.0232958  43.5812127  37.5874508  19.0727933
  44.3837296  38.2692254  18.1945666  44.0736925  38.1749201  18.9080374
  55.1432293  38.8607771   7.7470640  55.8666492  39.3265884   7.6035214
  54.7032884  38.9281381   6.9968237  55.1847985  38.9391608   7.6155422
  54.3118448  35.7205313  18.9971329  53.6975441  35.1763364  19.2919965
  54.8285733  35.2069550  18.5177145  54.2974110  35.5641723  18.9695558
  53.5514745  36.7909583  16.7315628  53.1242353  36.1659302  16.2981063
  53.5439689  36.5084505  17.5574635  53.4873886  36.6562364  16.7895456
  46.6677272  31.8274757  19.8004062  46.8270759  31.0718081  20.2055784
  46.4870166  32.3765696  20.4544800  46.6642631  31.7968570  19.9566768
  54.6097575  23.9935992  20.3554851  54.1138136  24.1899666  19.6646418
  55.3666637  24.3928660  20.1843653  54.6484400  24.0813726  20.2274988
  51.8800455  27.6678338  16.9458162  51.9042942  27.1338450  16.2570942
  52.1311928  27.1595647  17.6083753  51.9210373  27.5139242  16.9422807
  39.3908044  34.9509833  16.3801306  39.2851494  34.9056677  15.5153390
  38.6408264  35.2963614  16.6615591  39.2643647  34.9950741  16.2938636
  48.1601777  26.3949156  16.3263906  48.2000148  26.8958363  17.0398614
  47.3351442  26.4859550  16.0569829  48.0441303  26.4830973  16.3914445
  50.3431390  35.9609896  24.4284201  49.4927020  36.0981611  24.5641846
  50.5059517  35.2273675  24.8731903  50.2415253  35.8723997  24.5139800
  49.5816140  32.9109666  18.6237805  48.7508070  33.0783484  18.4173053
  49.5267657  32.5345617  19.4086691  49.4505555  32.8799397  18.7086333
  47.3899924  26.4018559  24.2594216  48.0152627  25.8580692  24.5323648
  46.9350403  25.9213477  23.6902006  47.4148184  26.2508040  24.2155810
  47.9552184  31.1865258   9.1527923  48.0955145  31.6837722   9.8556564
  48.4534717  30.4851552   9.2942137  48.0493265  31.1567236   9.2779502
  47.9852406  32.0532369   6.4820500  48.6197486  32.6492794   6.4169962
  48.0678017  31.7535826   7.2966370  48.0908957  32.0973277   6.5923586
  60.9634972  34.5847846  19.3506864  61.5552813  35.2245097  19.3825062
  61.3993967  33.8870883  19.6398931  61.1153403  34.5766196  19.3987697
  49.5631389  27.9846344   6.4565942  49.8847230  27.5049427   5.8025204
  49.8258333  28.7945990   6.2656753  49.6497415  28.0336242   6.3321434
  52.7928362  39.0065218  19.9764758  52.2853453  39.5601065  20.4205388
  52.4955008  39.0673508  19.1583532  52.6733247  39.0971530  19.9213215
  54.9590544  27.3718538  18.8189421  55.3845616  26.9191064  18.2072947
  54.3447537  26.8178609  19.0954208  54.9319190  27.2232514  18.7694446
  44.4905394  34.2500209   9.7510046  44.9997624  34.8464717  10.1321351
  44.9639667  33.9826183   9.0686465  44.6348770  34.2986025   9.7064569
  55.4036142  42.9228476   7.9068701  54.6865452  42.7489338   7.4415939
  56.0542880  42.6881048   7.3744187  55.3937993  42.8624269   7.7597919
  53.3984767  23.8433638  12.2279998  52.7553085  23.6931284  12.7965136
  53.0584174  23.5975983  11.4629103  53.2529844  23.7845760  12.1983013
  57.9884114  31.7993065  11.6510007  57.3175304  32.3422767  11.5223072
  58.6823864  32.2687920  11.4091701  57.9912981  31.9491336  11.5965534
  52.0370847  43.9389777  16.8821765  51.8136502  43.1808606  17.2505791
  51.5480691  43.9687798  16.1602205  51.9314296  43.8312001  16.8298506
  58.1512241  28.2548948  14.5600380  58.5039851  27.8278671  15.2346178
  57.2927043  28.1699792  14.6901456  58.0761686  28.1793689  14.6795390
  46.8495926  30.8856468  12.6183226  46.1307915  31.3020601  12.8856090
  47.2208288  31.4510707  12.0674864  46.7987858  31.0305749  12.5766033
  56.1495507  31.5184317  18.5085222  56.1293434  31.3367612  19.3620001
  56.1974708  32.3896335  18.4844806  56.1530148  31.6200855  18.6308517
  54.0941837  38.1071509  24.4333699  54.0537692  37.4621186  23.8478854
  54.9065155  38.0508126  24.7459111  54.2084990  38.0030476  24.3930648
  50.6849304  44.1590235  14.3358849  50.2709703  43.4964365  13.9462691
  51.3696679  44.3068094  13.8154544  50.7247676  44.0830893  14.2015347
  54.0514598  43.3180320  15.0882466  53.6530882  43.4282590  14.3203286
  53.4365818  43.5262386  15.6709026  53.9013488  43.3653888  15.0613765
  52.6242500  29.9254468   7.9556606  52.0307340  30.2471464   7.4041173
  52.6617778  29.0795563   7.7477712  52.5416890  29.8478796   7.8439377
  59.5836301  23.3767360  15.4884692  59.0767166  22.6696500  15.4205870
  60.3803735  23.0460549  15.6185769  59.6263540  23.2240512  15.4983687
  55.5000317  29.8833972  11.3858356  55.2714010  29.9066674  10.5436714
  55.7598393  29.0591439  11.5053367  55.5046505  29.7650052  11.2783554
  49.7819545  31.7368445  20.9883456  49.2698449  31.1289628  21.3468488
  49.6099042  32.4525038  21.4557432  49.6809182  31.7531745  21.1099680
  48.5545080  28.4210519  12.6812552  49.0302446  28.7827599  12.0462733
  48.0533679  29.0766986  12.9612694  48.5510439  28.5704707  12.6289293
  61.7856441  37.8932287   8.4725557  62.1690047  38.6423643   8.7023654
  60.9900554  38.1398106   8.2137546  61.7250223  38.0401981   8.4683130
  53.6588616  29.6592690  23.4285712  54.2160046  29.4306500  22.7964177
  53.3349681  30.4198356  23.1520924  53.6935026  29.7376527  23.2942209
  41.5287325  33.0852886  18.8974308  40.9814044  32.4153532  19.0155176
  42.3179703  32.7182734  18.9617775  41.5639508  32.9317873  18.9243008
  51.3771733  32.7460343  24.3937719  52.1283060  33.0612020  24.7077273
  51.5694310  32.5439514  23.5671641  51.5163147  32.7627725  24.3181115
  50.5971733  30.5651718   6.0485936  50.9770698  30.5831348   5.2637050
  49.8564329  31.0105707   5.9276783  50.5440570  30.6333493   5.9149504
  58.2257023  28.8733910  11.6361514  58.2251250  28.7182566  12.4945791
  58.0213203  29.7196897  11.5802900  58.1956801  28.9754530  11.7549454
  40.2874294  32.2973694  16.0520331  40.1096055  31.8450303  16.7775246
  39.9993316  33.0999856  16.2358808  40.2187247  32.3496252  16.1863834
  55.9497875  33.5531411  15.2897721  56.4451541  32.8354407  15.2501741
  55.1397651  33.2502209  15.1752208  55.9041769  33.4029058  15.2671447
  51.3956487  37.4029225   7.4394726  50.5867810  37.0795898   7.3928035
  51.9031396  36.6962447   7.3722974  51.3506154  37.2510541   7.4225020
  42.0246764  34.8301418  13.1642090  41.1592284  34.8187108  13.0524861
  42.1245580  34.6431641  14.0113229  41.9120931  34.8007479  13.2731034
  58.0149694  36.3035099  17.9774850  58.4404766  35.7809521  17.4245275
  57.6506614  36.9015936  17.4563473  58.0236297  36.3145326  17.8183860
  47.6503774  44.5999316  16.7372195  47.9650333  45.4135705  16.7449977
  48.0597187  44.2149535  17.4054355  47.7571872  44.6628019  16.8376287
  54.6028294  40.0169363  14.3076007  55.0739472  40.7309626  14.4765993
  54.9388472  39.4168113  14.8435877  54.7223409  40.0340828  14.4108383
  56.6905278  41.6270677  26.4868079  56.8002244  40.8379237  26.8424827
  57.0196175  41.5376613  25.6842418  56.7557684  41.4976530  26.4210470
  51.5197789  24.7896834  21.2634102  51.6525694  23.9927827  21.5915078
  51.9042941  25.3163237  21.8432378  51.5954117  24.7496751  21.3977605
  55.2402240  39.8087297  21.0703700  54.6923186  39.1845181  20.8023765
  55.7015269  39.9981569  20.3547779  55.2269449  39.7446348  20.9254131
  54.5930144  21.7127160  17.8615195  53.7876107  21.6024890  18.1783034
  54.4636879  21.8139616  17.0045061  54.4550277  21.7110830  17.7823236
  58.0496104  27.8772652  18.4554892  57.4659093  28.3781858  18.0432460
  58.3700398  27.3702208  17.8219216  58.0109280  27.8764487  18.3013400
  50.5890903  26.7913247   8.7313567  51.4106598  26.9611560   8.4895262
  50.1260554  26.9460508   8.0079865  50.6422066  26.8394980   8.5885211
  49.1786235  24.7856009  19.5111996  49.7230648  24.4447136  20.1016338
  49.2323171  25.6441470  19.6533281  49.2675355  24.8611268  19.6193869
  44.9916794  38.5472425  16.3850804  45.5961651  38.5068259  15.7564625
  44.7844107  39.3943577  16.4154860  45.0505691  38.6660427  16.2966920
  54.8060566  40.8138370  17.6013041  55.6258940  40.6701336  17.8629336
  54.5254644  41.4384569  18.1429479  54.8857310  40.8848722  17.7200981
  40.2268076  37.5307042  16.2549727  40.1292354  36.7203314  16.5639784
  41.0096946  37.5098836  15.8695995  40.3284213  37.4074133  16.2436590
  71.2774217  48.4703222  10.5655918  71.2468221  49.3247858  10.7374187
  71.8755565  48.1698514  11.1242061  71.3611374  48.5519718  10.6730720
  64.4773901  47.5578873  15.3208848  63.6211797  47.7187371  15.3717965
  64.5241555  46.6870937  15.3413909  64.3573013  47.4529675  15.3314914
  58.8615041  57.0941591  11.0846080  58.1097941  56.7157129  10.8562125
  59.3101053  57.1260024  10.3364890  58.8164708  57.0427198  10.9403582
  67.7867618  53.8265398  24.9269304  68.4934385  53.3317429  25.0556239
  67.9755553  54.2674480  24.1971962  67.9195524  53.8183749  24.8378350
  63.8544292  59.4681229  12.4542738  64.2383672  60.0368128  11.9147513
  63.7903434  58.7430739  11.9748554  63.9017720  59.4456692  12.3036601
  67.3225722  49.6170917  17.9640500  67.8681683  50.2956003  18.0234469
  67.2642599  49.4758378  17.1042081  67.3941637  49.6962918  17.8452560
  60.4399797  57.1059983  13.3508852  60.5410160  56.2960337  13.6605980
  59.8441543  57.0116929  12.7208531  60.3672336  56.9725011  13.3035091
  69.0990791  51.0455524   8.8374227  68.9830317  51.7963210   9.2666366
  69.8946678  50.7879477   9.0870314  69.1995381  51.1190371   8.9378319
  60.2800537  62.0237572  14.7523708  60.9237992  62.4650736  15.1419867
  60.6056792  61.2190998  14.6653967  60.4232366  61.9702767  14.7969185
  53.6364842  53.1280269  12.9761186  53.4015026  52.2947922  12.8693455
  53.7750482  53.4084935  12.1622387  53.6220504  53.0463773  12.8403541
  55.9354929  45.2966000  15.8745493  55.3159961  44.7058647  15.7055508
  55.8338793  45.8877435  15.2409817  55.8292605  45.2970082  15.7550483
  60.9821117  55.0349547  10.1243570  61.3036958  55.5754754   9.5204878
  61.6293213  54.4646318  10.2565860  61.1247172  55.0308722  10.0550605
  63.0322825  47.0365542  10.2077957  63.7302989  47.2153669  10.6999420
  63.3475157  46.5135881   9.5848346  63.1818162  46.9859314  10.1879967
  55.6624062  48.8418282  18.1189062  55.5382759  49.4280727  18.7538881
  56.3142347  48.3478477  18.4201337  55.7397711  48.8557086  18.2574992
  63.2210760  53.4235987  10.1957748  63.6604396  52.8153087  10.6412521
  63.0715423  53.0443360   9.4243213  63.2632226  53.2774458  10.1476915
  60.6882403  52.0179999  17.3976574  61.3331406  51.5252442  17.0787522
  60.9284180  52.1604785  18.2242652  60.8192988  51.9657441  17.4726107
  63.2268494  54.8634904  17.0483466  63.5091737  54.0686310  16.8270222
  63.9554655  55.3415492  17.0688527  63.3758058  54.8169501  17.0186481
  61.2049688  42.4057938  14.2899231  60.8753018  42.8569082  13.6202930
  60.5294690  42.3274102  14.8372238  61.0560125  42.4609074  14.2722454
  68.4126096  38.3943461  12.5348842  68.0979537  39.0846940  12.9669264
  67.8953038  38.3388244  11.8334343  68.2890566  38.4878350  12.4945791
  67.7538530  48.3947962   8.6486252  67.2250001  48.6107596   9.3083559
  68.2763550  49.0884101   8.5687222  67.7526983  48.5291099   8.7341852
  73.2086583  53.9694267  14.0219297  72.3784286  54.1804910  14.1852713
  73.1595835  53.1431321  13.7461580  73.0793318  53.8783873  14.0056662
  59.6438138  52.2911179   7.4493720  59.0595353  52.7961210   7.8559584
  59.2408233  52.0653566   6.7090312  59.4977441  52.3319427   7.3998746
  55.1982166  58.0065940  14.2517392  54.7149745  58.7316430  14.2276975
  56.0105485  58.3042070  14.3627550  55.2472914  58.1568294  14.2644671
  61.2696320  56.7998121  16.8567206  60.7523262  56.4405536  16.2528514
  61.9670712  56.2760295  16.8673272  61.2961901  56.6695809  16.7697465
  64.9259912  57.2492935  22.8183379  65.0143258  57.0619075  23.6661590
  65.3549625  56.6030365  22.4188226  65.0022015  57.1255943  22.8855131
  62.4930372  56.5324095  21.8001042  61.9301207  56.1196705  22.3240703
  63.2551396  56.4577001  22.2194185  62.5224821  56.4601495  21.9394042
  64.1015352  48.5376831   5.9262641  64.3411356  48.7454815   5.1137984
  64.4231193  47.7334340   6.0351585  64.1852510  48.4490932   5.8223194
  59.4105642  40.4670227   9.7722179  60.1651610  40.8348544   9.5339229
  59.2333177  40.8409781  10.5401358  59.4960121  40.5768415   9.8507067
  58.0526364  58.5222116  14.4037672  58.7546943  58.0074105  14.4610428
  57.9723847  58.8496267  15.2084547  58.1450124  58.4936342  14.5310464
  72.7040541  46.6164667  17.8169718  71.8668962  46.6866854  18.0517313
  72.6728772  46.6189162  16.9444021  72.5758823  46.6274894  17.7229266
  59.1005270  48.7597703  23.5318087  59.2725774  48.6503598  24.3803368
  59.6374628  49.4052108  23.2949279  59.2050274  48.8389705  23.6223184
  57.7662707  42.8740546   6.4700292  57.5838280  43.0912427   5.6441285
  58.6288320  42.9879559   6.5258906  57.8667296  42.9230444   6.3554779
  57.3777139  54.7128468  13.9123280  58.2166038  54.9451401  13.9597041
  57.4088908  53.8432779  13.8430315  57.5058857  54.6185415  13.9087924
  58.0029842  55.1329343  18.2136585  58.5428067  54.9900474  18.8839958
  57.3199788  55.5326094  18.5820612  57.9821996  55.1709014  18.3671007
  63.4462426  39.8766957   9.5049316  64.1748587  39.6982911   9.0587472
  63.5357319  40.7185036   9.7156494  63.5669088  39.9750835   9.4702833
  67.4270727  50.8120344  13.4081610  68.1828242  51.2451858  13.4470518
  67.5333051  50.1625114  13.9816246  67.5540897  50.7797828  13.4979635
  70.4650898  54.6393621  14.1584013  70.0286130  54.6430364  14.9142984
  70.1313813  55.3199120  13.7263590  70.3513518  54.7406077  14.2064845
  65.0379972  56.6801954  25.4827163  65.8220388  56.7932802  25.8482905
  64.8376566  55.8543091  25.6785849  65.1245997  56.5748673  25.5661549
  53.4066987  51.3529634  18.3671007  53.1405402  50.5368751  18.5261997
  53.4205551  51.3982790  17.4966522  53.3691709  51.2386539  18.2624489
  70.3848381  41.6807449  16.4013441  71.0274289  41.7505554  16.9875356
  70.6371402  41.0136672  15.8992982  70.5170513  41.5933798  16.4140720
  57.3124734  46.1514718   4.9822765  56.5982911  45.8652898   5.3945197
  57.7968703  46.4911344   5.6229152  57.2784097  46.1596368   5.1378400
  58.1565593  44.8908012  21.0138015  57.4637390  44.4204992  21.2598746
  58.7725921  44.6646317  21.5879722  58.1450123  44.7875144  21.1347167
  65.1950365  58.5912056  19.1293619  64.3965611  58.3511556  19.3867487
  65.6436376  58.6426449  19.8760666  65.1424976  58.5634447  19.2778543
  73.5995244  51.3574541  13.0503650  74.2611678  50.7965210  12.9499558
  72.9586656  50.8626572  13.3756341  73.6024112  51.2010950  13.0835990
  53.8160401  52.1388413  15.6482751  53.6335974  52.1135299  14.7955043
  54.5510070  52.6087351  15.6871660  53.8974465  52.2049776  15.5280670
  69.8860075  52.3739923  12.7915639  70.1215664  52.5185122  11.9642489
  70.0349639  53.1382331  13.1847152  69.9425878  52.5078978  12.7279243
  56.8806152  48.8573416  22.1564860  57.6046125  48.8426447  22.6429754
  56.9822289  49.5668772  21.6586828  57.0024361  48.9598120  22.1543647
  71.7150532  51.2141589  10.6285242  72.0458749  51.7469230  10.0225337
  72.2883620  51.2680477  11.2847193  71.8484211  51.3011158  10.6363024
  64.2551102  52.3372501  27.0213807  63.4624083  52.6516013  27.2066426
  64.3700029  52.5523969  26.1834591  64.1546512  52.4156338  26.9252142
  66.9282421  49.0606492  11.3108823  67.0229275  49.7995786  11.7648448
  66.3041264  48.6323968  11.7443387  66.8491451  49.1067813  11.4416970
  65.1834895  52.2392705  21.9599103  65.7573756  51.6019949  22.1147667
  65.1049698  52.2396787  21.0908761  65.2568129  52.1457816  21.8545514
  53.7831311  49.0181914  15.7981818  54.3604814  48.8818365  16.4374063
  53.0845373  48.5617698  16.0527402  53.7652332  48.9304180  15.9304107
  60.5398613  50.6715970  14.0120301  60.2817858  49.8387705  13.9851600
  60.5947096  50.8973583  13.1712801  60.5098391  50.5813741  13.8840438
  65.6199663  42.7744421  14.1124394  64.9155990  42.2853606  14.2708313
  65.6684638  42.7866895  13.2412838  65.5229715  42.7034068  14.0063733
  59.5133325  48.2253732  14.4985196  58.9382917  48.3845901  15.1349157
  59.1369002  47.5889141  14.0353646  59.3736138  48.1551545  14.5239754
  63.1806614  46.6977082  19.3577574  62.7921047  46.2731299  18.7029765
  62.5161312  46.9459231  19.8654601  63.0253542  46.6715803  19.3365442
  72.8229883  46.4552086  12.1325404  72.5666448  45.6432028  11.9423287
  73.6659197  46.4629653  11.9055591  72.9095909  46.3364084  12.0710221
  49.2590144  47.8693807  12.5129636  49.3450396  47.4925675  13.2943166
  49.8865942  47.4954253  12.0349595  49.3646695  47.7579289  12.5575114
  67.0032976  40.3951710  16.8701558  67.3843487  39.7129881  17.2569432
  66.1996260  40.1061312  16.6877223  66.9409437  40.2518759  16.9005614
  64.2845552  50.9275686   7.5554381  65.0986191  51.2190579   7.4437152
  64.2204694  50.2735549   6.9812674  64.3948291  50.8740881   7.4543218
  70.5055042  53.6101682  21.9683957  70.2693680  52.7789747  21.8496017
  71.1498271  53.5587289  22.5538801  70.5649713  53.4799370  22.0369850
  60.1553461  54.3997204  12.6826693  60.7927407  54.1608951  13.2278486
  60.5808532  54.6034363  11.9479854  60.3129627  54.3948214  12.6543850
  54.8466103  56.6385540  16.5660997  54.8870248  56.9100391  15.7380776
  55.4060627  57.1627448  16.9818785  54.9349449  56.7561295  16.5052885
  60.7956276  49.6199493   7.0201582  61.1801428  49.4007200   7.7718128
  60.5467896  50.4462439   7.1502659  60.8158348  49.7097640   7.1502659
  60.9624816  42.9005909  26.7364167  60.6478257  43.6705471  26.4733729
  60.6414749  42.3376165  26.1516394  60.8683735  42.9316177  26.6105517
  71.5291463  53.3946131  18.0312251  71.2237280  54.1274188  18.3925567
  70.8097679  52.9884061  17.7505037  71.3778805  53.4427864  18.0425388
  62.5374932  54.8769626  14.3620479  62.6113941  54.7144798  15.2162329
  63.3544439  55.0659816  14.1180961  62.6691291  54.8806369  14.4518505
  77.2293255  50.0339132  17.3580595  77.1617755  50.0535091  16.4883182
  77.2148918  50.8769459  17.5836266  77.2172012  50.1612866  17.2633072
  56.2980689  55.2227489  11.3914923  55.4718807  55.4689226  11.2649202
  56.3592680  55.1439570  12.2576981  56.1854856  55.2472438  11.5003867
  58.5156713  41.2896430  12.3510363  57.6479138  41.3619030  12.4167972
  58.8031917  42.0918509  12.5398338  58.4296461  41.4190577  12.3885130
  67.6389602  41.4374289  20.6821685  68.3843194  41.2484100  20.2685110
  67.2226906  41.9632527  20.1235541  67.6874576  41.4876435  20.5386258
  75.0151873  48.8083518  15.6327190  75.5659794  48.1751587  15.8724282
  74.9995988  49.3398911  16.3242694  75.0937069  48.7932466  15.7706048
  61.6674263  52.6422115  20.1787083  61.1685957  53.3537883  20.2571972
  62.4774488  52.9622782  20.1405246  61.7130370  52.7948964  20.1843652
  59.0185434  59.8171752  12.1594102  58.7985729  59.5269106  12.9520769
  58.7979956  59.1586707  11.6312015  58.9533028  59.6771460  12.1983011
  57.9302381  51.9045068  14.4249804  57.6415630  51.2782539  14.9595531
  58.7985729  51.8465356  14.4914485  58.0162633  51.8032612  14.5140759
  68.7180279  47.0479852  14.7431786  68.3745045  46.3270187  15.0939036
  68.8173321  46.8393703  13.9010144  68.6822322  46.9104055  14.6703466
  61.1853390  61.1901142  10.9424795  61.8377448  60.6577584  11.1715821
  60.4878998  60.8369794  11.3292669  61.1784107  61.0590665  11.0336963
  58.1334654  53.5440319  10.3492169  58.8880622  53.9253358  10.5627632
  57.5405267  53.9951463  10.8038866  58.1571368  53.6669147  10.4475048
  69.1793308  53.5105556  10.2855774  69.7451340  54.1698766  10.2014317
  68.5321211  53.8555254  10.7572176  69.1672064  53.6587497  10.3428531
  60.5941321  45.5003160  25.4749382  59.7841097  45.8060939  25.3639224
  61.0716008  46.2208742  25.5901966  60.5444800  45.6517761  25.4756453
  59.4532881  54.7148881  15.7232285  58.9313634  54.8549172  16.4084149
  59.8406901  53.9559545  15.9134402  59.4336582  54.6234404  15.8533361
  56.4424065  44.7654689   9.7927239  56.1548861  44.3955960   9.0559187
  57.1294533  45.2349545   9.5310944  56.5012962  44.7801659   9.6442315
  60.8799207  51.7452900  11.1213776  60.6841989  52.3527634  10.5274079
  61.1033552  51.0520844  10.6405450  60.8833848  51.7330425  10.9629856
  59.2777737  48.6307638  11.2394644  60.0000389  48.7948796  10.7798450
  58.7985729  49.3517302  11.1333984  59.3141467  48.7605867  11.1560258
  67.2371244  44.9671436  16.6191329  66.3982345  44.9932715  16.3829592
  67.3075611  45.6142172  17.1996676  67.1239638  45.0667562  16.6700446
  56.9285353  51.0365710  20.3448784  57.4406450  51.3149963  19.6957544
  56.6421696  51.7755004  20.7111597  56.9620216  51.1868064  20.3038662
  65.6840522  41.8656813  11.3518945  66.3866875  41.6664562  10.8738903
  65.4184711  41.0932756  11.6587788  65.7487155  41.7219779  11.3264386
  71.1128768  50.1739423  13.9052571  71.0262743  50.3294849  14.7587350
  70.6579248  50.8177499  13.5311976  71.0332025  50.2915178  13.9759677
  54.0152260  45.5435902  10.6412520  54.1168396  46.3462063  10.9693496
  54.8108146  45.3423238  10.3435601  54.1480165  45.6321801  10.6447876
  60.4469079  43.1292099  20.4049825  60.2552276  43.1447233  21.2549249
  61.2967675  43.3255773  20.3816480  60.5444801  43.1606450  20.5273120
  54.8315992  45.6583080  18.3833642  54.6901484  44.8067021  18.5078150
  55.1156555  45.7011741  17.5595848  54.8523838  45.5382830  18.2801266
  64.9854584  47.4950170  12.5278130  64.7389298  47.4145921  13.3614919
  65.3139707  46.7103638  12.3340658  64.9975828  47.3676436  12.6225653
  68.8802633  54.2033530  16.3164911  68.7416992  54.9014575  16.8213654
  68.1002631  54.0482186  15.9601093  68.7445860  54.2833696  16.3391186
  67.2180718  50.5029905  22.5687293  67.2128757  49.6309721  22.5729720
  67.9241712  50.7018074  22.0956749  67.3225722  50.4033779  22.4994329
  60.9451611  50.2306889  21.9401113  61.0894987  50.8108097  21.3044223
  61.2927260  50.6083186  22.6450968  61.0179073  50.3727593  21.9500108
  63.1171529  49.4297057  19.7226245  62.3694843  49.6228072  19.3174523
  63.2713054  48.6042277  19.4850366  63.0293956  49.3362169  19.6271651
  60.0179366  58.4209661  18.8062140  60.1668930  57.8612577  18.1535545
  60.7979368  58.5001662  19.1894659  60.1553460  58.3495226  18.7659089
  62.5432667  58.5924304  20.0846631  62.4676338  57.9233114  20.6397419
  62.4722526  59.2942092  20.5987297  62.5213274  58.5969211  20.2423479
  63.3573306  43.3247608  20.6121649  63.8145920  44.0571582  20.7394441
  63.4329635  42.9014073  21.3708904  63.4364276  43.3704846  20.7422725
  55.6006297  43.5713428  21.7011092  55.0648486  42.9593786  22.0171860
  55.6624062  44.1461564  22.3544759  55.5301930  43.5660355  21.8446519
  67.8300632  36.5037483  14.4815492  67.9484200  36.9613946  13.7482794
  67.6562807  35.6982744  14.1951709  67.8219803  36.4531255  14.3316425
  63.2002914  57.1125302  10.9170237  63.9652805  56.8434946  10.5952901
  63.0981004  56.6275313  11.6340300  63.2984409  57.0014867  10.9750064
  61.2355684  45.3149712  17.4563473  60.4451758  45.1341172  17.7780808
  61.6316306  44.5376664  17.4393767  61.1772560  45.1737173  17.5016021
  63.7493514  47.7909971  21.9386972  63.6852655  48.6519927  21.8107108
  63.8890702  47.4741964  21.1382523  63.7608984  47.8710138  21.8015184
  62.4312608  50.4842110  16.0803174  62.0074857  50.6846609  15.3442193
  62.2557463  49.6370958  16.1927474  62.3423488  50.3890892  15.9876865
  61.9324301  61.9992623  18.5424632  62.4220232  61.3003413  18.3600296
  61.3608534  61.7016493  19.1300689  61.9208831  61.8518847  18.6025673
  57.7195053  50.9794162  11.5131147  57.8759672  50.9140965  12.3687139
  58.0595646  51.7542714  11.3009827  57.7928288  51.0843360  11.6085741
  64.2574197  50.3552045  10.3824510  64.7989743  49.8522426  10.8463131
  64.5720756  50.3017240   9.5713995  64.3838594  50.2731466  10.3308322
  68.1291305  54.5654693  27.4951422  68.9426170  54.2939842  27.6556555
  67.9686271  54.2662233  26.6911618  68.2261253  54.4809619  27.3996828
  65.4063467  45.2488350  20.4346811  65.6205436  44.6099264  19.8810165
  64.7897366  45.6934174  20.0054672  65.3468796  45.2198494  20.2897242
  54.2929314  48.1629112  11.8291914  54.6728279  48.5813657  11.1652181
  53.7184679  48.7442568  12.1360757  54.2640639  48.3106971  11.7768655
  67.5702555  46.8577415  21.3730118  66.7579237  46.5503305  21.4543290
  68.0292489  46.3776415  21.9372830  67.5182940  46.7413907  21.4684712
  66.9807809  54.7357087  11.8207062  66.6222464  54.9071730  12.5971095
  66.4946520  55.1970293  11.2635061  66.8566506  54.8296058  11.8532331
  64.7978195  38.3588286  15.4234153  63.9271753  38.3327007  15.3767463
  65.0518537  38.1865478  14.6059999  64.7071756  38.3298429  15.2954290
  64.6656062  48.2637486  26.1558820  65.1355693  48.8879603  26.5426694
  64.7117942  47.5954462  26.7152035  64.7423938  48.2572167  26.2958891
  61.8227336  40.3694514  16.8807624  61.3065825  39.6774705  17.0059203
  61.2621265  41.0365291  16.8270223  61.6633849  40.3657772  16.8913690
  63.8919569  40.9087474  18.7100476  63.5051323  40.9336505  19.4914006
  63.4052507  40.3429153  18.2574993  63.7632078  40.8283225  18.7588380
  68.1412549  55.6260983  22.7674263  68.7792269  55.1321179  22.4336719
  67.4986640  55.5538383  22.1826490  68.1406775  55.5419991  22.6316618
  69.8669549  47.4750129  17.3340179  69.4397157  47.3876478  16.5788278
  69.2295602  47.5827904  17.9195023  69.7099156  47.4782789  17.3085620
  63.5576711  37.7954459  21.0010736  64.1869829  38.3314760  20.7231807
  63.7262574  37.7031818  21.8524302  63.6754506  37.8615822  21.0859264
  63.3590626  42.5825654  23.2737148  64.1864055  42.3110803  23.3295762
  63.3798472  43.3786496  23.6300966  63.4843476  42.6605408  23.3352331
  68.1966805  56.3180791  19.4079620  68.9859184  55.9669856  19.5281701
  68.3710403  57.1317180  19.1456254  68.3387087  56.3866648  19.3867488
  57.9360116  49.7289517  16.4607409  57.0948122  49.6293391  16.6686302
  58.1450124  50.4984997  16.8121729  57.8424808  49.8281560  16.5434723
  55.4135683  47.3509054  14.2892159  55.0192381  47.4252066  13.5142269
  54.8575800  47.7367000  14.8400521  55.2738495  47.4190829  14.2559819
  67.0500630  40.3290348  13.9696038  67.2550223  40.2612656  14.8153035
  66.7227054  41.1349169  13.9017216  67.0315877  40.4376288  14.0855693
  61.7476781  47.6570916  15.7105006  61.4439918  47.1026904  16.3115414
  61.0456201  47.8363126  15.2233040  61.5992990  47.6015698  15.7274712
  60.8042878  44.9671436  10.2749708  61.0802612  44.2490348   9.8627275
  61.4041547  45.5656356  10.0670814  60.9336142  44.9491807  10.1830469
  59.8095132  54.8720637  20.4177104  59.7015487  54.8822699  21.2839162
  60.0190913  55.6975417  20.2282058  59.8245243  54.9961712  20.5181195
  70.3034317  40.8822112  13.4498804  69.6908631  41.3692514  13.8352535
  70.3998492  40.2065603  13.9936455  70.2272215  40.8540421  13.5877662
  64.3053398  42.6384953   8.5496303  64.7597145  42.8095514   9.2744147
  64.7793444  42.0253064   8.1494079  64.4421718  42.5735839   8.5970065
  57.8268924  52.1233279  17.8799041  57.2356857  52.7642777  17.8502057
  58.5889947  52.5470897  17.8530341  57.8517184  52.2809118  17.8714189
  58.2229546  43.2835277  18.5467059  58.6831028  43.3574206  19.2842183
  58.2685653  44.0816531  18.1966880  58.2980102  43.4129424  18.6039816
  59.8712896  43.9501972  23.1139086  59.4798461  43.3035319  23.5494864
  60.0398759  44.5413407  23.7333342  59.8383807  43.9416240  23.2701792
  73.9459345  51.9539049  18.8776320  74.0042469  52.4025698  19.6236296
  73.3125813  52.3637862  18.4406400  73.8610640  52.0812784  18.9228868
  67.5858440  57.5742591  15.3131066  67.3878129  58.0633405  14.6187277
  66.9646151  57.7783832  15.8915199  67.4646004  57.6759129  15.2954289
  61.6466418  49.3427488   9.6541310  62.3908463  49.7301764   9.8924260
  61.7927114  48.4984913   9.8181798  61.7777003  49.2757960   9.7135280
  63.5645994  41.1377747  14.6873172  62.7182039  41.3100554  14.5614521
  63.5617126  40.3327090  15.0239000  63.4393144  41.0438776  14.7184299
  64.6344294  44.9152961  15.5535230  64.1604248  44.3894723  16.0640540
  65.0062430  44.3682434  14.9850091  64.6194183  44.7568958  15.5450377
  55.0117324  46.9124468  20.9218775  55.8742937  46.8120177  20.8356105
  54.6809107  46.3319177  20.3604347  55.0902521  46.8116094  20.8264181
  70.8981025  49.9755337  16.9642010  70.6579248  49.1361752  16.9684436
  71.3773032  50.0555503  17.6882784  70.9333208  49.8636736  17.0716812
  66.5627794  45.8089516   8.6160983  66.0350812  45.8918260   7.9266692
  67.0223502  46.5507387   8.6125628  66.5529644  45.9310178   8.5135678
  72.8986212  46.7556794  14.9171269  72.6595982  46.7152628  14.0792054
  73.0620113  47.6027946  15.0436990  72.8876515  46.8748879  14.8124751
  69.5032242  51.1406743  20.8476314  70.2266441  50.6879270  20.6687334
  69.2382204  51.4211409  20.0648642  69.5713515  51.1157712  20.7055030
  58.3719110  45.7366917  17.5829193  57.7472180  45.7485309  16.9755146
  58.0364705  46.2127092  18.2320434  58.2304602  45.8085434  17.5885762
  58.5560859  44.0792035   3.6401878  58.2073663  44.7311760   4.1033428
  58.0757305  44.0649148   2.9125750  58.4331103  44.1735089   3.6012970
  55.0844786  53.7967377  19.0232958  54.5544710  53.1059816  19.0727933
  55.3569879  53.7877562  18.1945666  55.0469508  53.6934509  18.9080374
  65.2851031  51.2390621  18.9971329  64.6708024  50.6948672  19.2919965
  65.8018316  50.7254858  18.5177145  65.2706694  51.0827030  18.9695558
  64.5247329  52.3094891  16.7315628  64.0974937  51.6844610  16.2981063
  64.5172273  52.0269813  17.5574635  64.4606470  52.1747672  16.7895456
  57.6409856  47.3460064  19.8004062  57.8003342  46.5903389  20.2055784
  57.4602749  47.8951004  20.4544800  57.6375215  47.3153878  19.9566768
  65.5830159  39.5121300  20.3554851  65.0870720  39.7084974  19.6646418
  66.3399221  39.9113968  20.1843653  65.6216983  39.5999034  20.2274988
  62.8533038  43.1863646  16.9458162  62.8775525  42.6523758  16.2570942
  63.1044512  42.6780955  17.6083753  62.8942957  43.0324550  16.9422807
  50.3640628  50.4695141  16.3801306  50.2584077  50.4241985  15.5153390
  49.6140848  50.8148921  16.6615591  50.2376231  50.5136049  16.2938636
  59.1334360  41.9134464  16.3263906  59.1732732  42.4143671  17.0398614
  58.3084025  42.0044858  16.0569829  59.0173886  42.0016281  16.3914445
  61.3163973  51.4795204  24.4284201  60.4659604  51.6166918  24.5641846
  61.4792101  50.7458982  24.8731903  61.2147837  51.3909305  24.5139800
  60.5548724  48.4294974  18.6237805  59.7240653  48.5968792  18.4173053
  60.5000241  48.0530925  19.4086691  60.4238139  48.3984705  18.7086333
  58.3632507  41.9203867  24.2594216  58.9885210  41.3766000  24.5323648
  57.9082987  41.4398785  23.6902006  58.3880768  41.7693348  24.2155810
  58.9284768  46.7050566   9.1527923  59.0687729  47.2023030   9.8556564
  59.4267300  46.0036860   9.2942137  59.0225849  46.6752544   9.2779502
  58.9584990  47.5717677   6.4820500  59.5930070  48.1678102   6.4169962
  59.0410601  47.2721134   7.2966370  59.0641541  47.6158585   6.5923586
  71.9367556  50.1033154  19.3506864  72.5285396  50.7430405  19.3825062
  72.3726550  49.4056191  19.6398931  72.0885987  50.0951504  19.3987697
  60.5363973  43.5031652   6.4565942  60.8579814  43.0234735   5.8025204
  60.7990917  44.3131298   6.2656753  60.6229998  43.5521550   6.3321434
  63.7660946  54.5250526  19.9764758  63.2586037  55.0786373  20.4205388
  63.4687592  54.5858816  19.1583532  63.6465831  54.6156838  19.9213215
  65.9323128  42.8903846  18.8189421  66.3578199  42.4376372  18.2072947
  65.3180121  42.3363917  19.0954208  65.9051773  42.7417822  18.7694446
  55.4637978  49.7685517   9.7510046  55.9730207  50.3650025  10.1321351
  55.9372250  49.5011491   9.0686465  55.6081354  49.8171333   9.7064569
  64.3717351  39.3618946  12.2279998  63.7285669  39.2116592  12.7965136
  64.0316758  39.1161291  11.4629103  64.2262428  39.3031068  12.1983013
  68.9616697  47.3178373  11.6510007  68.2907887  47.8608075  11.5223072
  69.6556447  47.7873228  11.4091701  68.9645565  47.4676644  11.5965534
  63.0103431  59.4575085  16.8821765  62.7869085  58.6993914  17.2505791
  62.5213274  59.4873106  16.1602205  62.9046880  59.3497309  16.8298506
  69.1244825  43.7734256  14.5600380  69.4772435  43.3463979  15.2346178
  68.2659626  43.6885100  14.6901456  69.0494269  43.6978997  14.6795390
  67.1228090  47.0369625  18.5085222  67.1026018  46.8552920  19.3620001
  67.1707291  47.9081643  18.4844806  67.1262731  47.1386163  18.6308517
  65.0674420  53.6256817  24.4333699  65.0270275  52.9806494  23.8478854
  65.8797739  53.5693434  24.7459111  65.1817574  53.5215784  24.3930648
  61.6581888  59.6775543  14.3358849  61.2442287  59.0149673  13.9462691
  62.3429262  59.8253401  13.8154544  61.6980260  59.6016201  14.2015347
  65.0247182  58.8365628  15.0882466  64.6263465  58.9467898  14.3203286
  64.4098402  59.0447694  15.6709026  64.8746071  58.8839196  15.0613765
  63.5975084  45.4439776   7.9556606  63.0039923  45.7656772   7.4041173
  63.6350362  44.5980871   7.7477712  63.5149473  45.3664104   7.8439377
  70.5568885  38.8952668  15.4884692  70.0499749  38.1881808  15.4205870
  71.3536318  38.5645857  15.6185769  70.5996124  38.7425819  15.4983687
  66.4732901  45.4019280  11.3858356  66.2446594  45.4251982  10.5436714
  66.7330977  44.5776747  11.5053367  66.4779089  45.2835360  11.2783554
  60.7552129  47.2553753  20.9883456  60.2431032  46.6474936  21.3468488
  60.5831625  47.9710346  21.4557432  60.6541766  47.2717053  21.1099680
  55.6017844  45.6991329  23.6385818  55.4320434  46.3592704  23.0934025
  55.1583794  45.9097890  24.3598307  55.5117177  45.8277311  23.6647447
  59.5277663  43.9395827  12.6812552  60.0035029  44.3012906  12.0462733
  59.0266263  44.5952294  12.9612694  59.5243022  44.0890015  12.6289293
  64.6321199  45.1777998  23.4285712  65.1892630  44.9491808  22.7964177
  64.3082264  45.9383664  23.1520924  64.6667610  45.2561835  23.2942209
  52.5019908  48.6038194  18.8974308  51.9546628  47.9338840  19.0155176
  53.2912286  48.2368042  18.9617775  52.5372092  48.4503181  18.9243008
  62.3504317  48.2645651  24.3937719  63.1015644  48.5797328  24.7077273
  62.5426893  48.0624822  23.5671641  62.4895731  48.2813033  24.3181115
  61.5704316  46.0837026   6.0485936  61.9503281  46.1016656   5.2637050
  60.8296912  46.5291015   5.9276783  61.5173154  46.1518801   5.9149504
  69.1989607  44.3919218  11.6361514  69.1983833  44.2367874  12.4945791
  68.9945787  45.2382205  11.5802900  69.1689385  44.4939838  11.7549454
  51.2606878  47.8159002  16.0520331  51.0828639  47.3635611  16.7775246
  50.9725900  48.6185163  16.2358808  51.1919831  47.8681560  16.1863834
  66.9230459  49.0716719  15.2897721  67.4184124  48.3539714  15.2501741
  66.1130235  48.7687517  15.1752208  66.8774352  48.9214366  15.2671447
  62.3689070  52.9214533   7.4394726  61.5600393  52.5981206   7.3928035
  62.8763979  52.2147755   7.3722974  62.3238737  52.7695849   7.4225020
  52.9979348  50.3486726  13.1642090  52.1324867  50.3372416  13.0524861
  53.0978164  50.1616949  14.0113229  52.8853515  50.3192787  13.2731034
  68.9882278  51.8220407  17.9774850  69.4137349  51.2994829  17.4245275
  68.6239198  52.4201244  17.4563473  68.9968880  51.8330634  17.8183860
  58.6236358  60.1184624  16.7372195  58.9382916  60.9321013  16.7449977
  59.0329771  59.7334843  17.4054355  58.7304456  60.1813327  16.8376287
  65.5760877  55.5354671  14.3076007  66.0472055  56.2494934  14.4765993
  65.9121056  54.9353421  14.8435877  65.6955992  55.5526135  14.4108383
  67.6637862  57.1455985  26.4868079  67.7734827  56.3564545  26.8424827
  67.9928758  57.0561921  25.6842418  67.7290268  57.0161837  26.4210470
  62.4930372  40.3082142  21.2634102  62.6258278  39.5113135  21.5915078
  62.8775525  40.8348545  21.8432378  62.5686701  40.2682058  21.3977605
  66.2134823  55.3272605  21.0703700  65.6655769  54.7030489  20.8023765
  66.6747852  55.5166877  20.3547779  66.2002033  55.2631656  20.9254131
  65.5662727  37.2312468  17.8615195  64.7608691  37.1210198  18.1783034
  65.4369463  37.3324924  17.0045061  65.4282860  37.2296138  17.7823236
  69.0228688  43.3957960  18.4554892  68.4391677  43.8967166  18.0432460
  69.3432982  42.8887516  17.8219216  68.9841863  43.3949795  18.3013400
  61.5623487  42.3098555   8.7313567  62.3839181  42.4796867   8.4895262
  61.0993138  42.4645816   8.0079865  61.6154649  42.3580288   8.5885211
  60.1518819  40.3041317  19.5111996  60.6963232  39.9632444  20.1016338
  60.2055755  41.1626778  19.6533281  60.2407938  40.3796576  19.6193869
  55.9649378  54.0657733  16.3850804  56.5694235  54.0253567  15.7564625
  55.7576690  54.9128885  16.4154860  56.0238275  54.1845735  16.2966920
  65.7793150  56.3323678  17.6013041  66.5991524  56.1886644  17.8629336
  65.4987227  56.9569877  18.1429479  65.8589893  56.4034030  17.7200981
  51.2000660  53.0492350  16.2549727  51.1024938  52.2388622  16.5639784
  51.9829530  53.0284144  15.8695995  51.3016796  52.9259441  16.2436590
  78.7600202  69.3450706  24.9269304  79.4666969  68.8502737  25.0556239
  78.9488137  69.7859788  24.1971962  78.8928107  69.3369057  24.8378350
  66.9087513  60.8151308  15.8745493  66.2892544  60.2243955  15.7055508
  66.8071376  61.4062743  15.2409817  66.8025188  60.8155390  15.7550483
  66.6356646  64.3603590  18.1189062  66.5115343  64.9466035  18.7538881
  67.2874930  63.8663785  18.4201337  66.7130295  64.3742394  18.2574992
  72.1782272  57.9243246  14.2899231  71.8485602  58.3754390  13.6202930
  71.5027274  57.8459410  14.8372238  72.0292708  57.9794382  14.2722454
  70.0737854  64.2783011  23.5318087  70.2458357  64.1688906  24.3803368
  70.6107211  64.9237416  23.2949279  70.1782858  64.3575013  23.6223184
  76.0112555  72.1987262  25.4827163  76.7952972  72.3118110  25.8482905
  75.8109150  71.3728399  25.6785849  76.0978581  72.0933981  25.5661549
  64.3799571  66.8714942  18.3671007  64.1137986  66.0554059  18.5261997
  64.3938135  66.9168098  17.4966522  64.3424293  66.7571847  18.2624489
  69.1298177  60.4093320  21.0138015  68.4369974  59.9390300  21.2598746
  69.7458504  60.1831625  21.5879722  69.1182707  60.3060452  21.1347167
  67.8538736  64.3758724  22.1564860  68.5778708  64.3611755  22.6429754
  67.9554872  65.0854080  21.6586828  67.9756945  64.4783427  22.1543647
  75.2283685  67.8557809  27.0213807  74.4356666  68.1701321  27.2066426
  75.3432612  68.0709277  26.1834591  75.1279096  67.9341646  26.9252142
  76.1567478  67.7578013  21.9599103  76.7306340  67.1205257  22.1147667
  76.0782282  67.7582095  21.0908761  76.2300713  67.6643124  21.8545514
  64.7563895  64.5367222  15.7981818  65.3337397  64.4003673  16.4374063
  64.0577956  64.0803006  16.0527402  64.7384916  64.4489488  15.9304107
  74.1539198  62.2162390  19.3577574  73.7653630  61.7916607  18.7029765
  73.4893896  62.4644539  19.8654601  73.9986125  62.1901111  19.3365442
  60.2322728  63.3879115  12.5129636  60.3182980  63.0110983  13.2943166
  60.8598525  63.0139561  12.0349595  60.3379279  63.2764597  12.5575114
  77.9765559  55.9137018  16.8701558  78.3576071  55.2315189  17.2569432
  77.1728843  55.6246620  16.6877223  77.9142021  55.7704067  16.9005614
  71.9357400  58.4191217  26.7364167  71.6210841  59.1890779  26.4733729
  71.6147332  57.8561473  26.1516394  71.8416319  58.4501485  26.6105517
  69.4889297  56.8081738  12.3510363  68.6211722  56.8804337  12.4167972
  69.7764501  57.6103817  12.5398338  69.4029045  56.9375885  12.3885130
  78.6122185  56.9559597  20.6821685  79.3575777  56.7669408  20.2685110
  78.1959490  57.4817835  20.1235541  78.6607159  57.0061743  20.5386258
  72.6406847  68.1607423  20.1787083  72.1418541  68.8723191  20.2571972
  73.4507071  68.4808090  20.1405246  72.6862954  68.3134272  20.1843652
  71.5673905  61.0188468  25.4749382  70.7573681  61.3246247  25.3639224
  72.0448592  61.7394050  25.5901966  71.5177384  61.1703069  25.4756453
  67.9017937  66.5551018  20.3448784  68.4139034  66.8335271  19.6957544
  67.6154279  67.2940312  20.7111597  67.9352800  66.7053372  20.3038662
  71.4201662  58.6477407  20.4049825  71.2284859  58.6632541  21.2549249
  72.2700258  58.8441081  20.3816480  71.5177384  58.6791758  20.5273120
  65.8048575  61.1768388  18.3833642  65.6634067  60.3252329  18.5078150
  66.0889139  61.2197049  17.5595848  65.8256421  61.0568138  18.2801266
  78.1913302  66.0215213  22.5687293  78.1861340  65.1495029  22.5729720
  78.8974295  66.2203382  22.0956749  78.2958306  65.9219087  22.4994329
  71.9184195  65.7492197  21.9401113  72.0627571  66.3293405  21.3044223
  72.2659843  66.1268493  22.6450968  71.9911656  65.8912901  21.9500108
  74.0904112  64.9482365  19.7226245  73.3427426  65.1413380  19.3174523
  74.2445638  64.1227585  19.4850366  74.0026540  64.8547477  19.6271651
  74.3305889  58.8432916  20.6121649  74.7878503  59.5756890  20.7394441
  74.4062218  58.4199381  21.3708904  74.4096859  58.8890154  20.7422725
  66.5738881  59.0898736  21.7011092  66.0381070  58.4779094  22.0171860
  66.6356645  59.6646872  22.3544759  66.5034513  59.0845663  21.8446519
  78.8033215  52.0222791  14.4815492  78.9216783  52.4799254  13.7482794
  78.6295391  51.2168052  14.1951709  78.7952386  51.9716563  14.3316425
  72.2088267  60.8335020  17.4563473  71.4184342  60.6526480  17.7780808
  72.6048890  60.0561972  17.4393767  72.1505143  60.6922481  17.5016021
  74.7226098  63.3095279  21.9386972  74.6585239  64.1705235  21.8107108
  74.8623285  62.9927272  21.1382523  74.7341568  63.3895446  21.8015184
  79.1023888  70.0840001  27.4951422  79.9158754  69.8125149  27.6556555
  78.9418855  69.7847541  26.6911618  79.1993837  69.9994927  27.3996828
  76.3796050  60.7673658  20.4346811  76.5938020  60.1284572  19.8810165
  75.7629950  61.2119482  20.0054672  76.3201380  60.7383801  20.2897242
  78.5435138  62.3762723  21.3730118  77.7311820  62.0688613  21.4543290
  79.0025073  61.8961723  21.9372830  78.4915523  62.2599215  21.4684712
  75.7710779  53.8773593  15.4234153  74.9004337  53.8512315  15.3767463
  76.0251120  53.7050786  14.6059999  75.6804339  53.8483737  15.2954290
  75.6388646  63.7822794  26.1558820  76.1088277  64.4064911  26.5426694
  75.6850526  63.1139770  26.7152035  75.7156522  63.7757475  26.2958891
  72.7959919  55.8879822  16.8807624  72.2798408  55.1960013  17.0059203
  72.2353848  56.5550599  16.8270223  72.6366433  55.8843079  16.8913690
  74.8652153  56.4272782  18.7100476  74.4783906  56.4521813  19.4914006
  74.3785090  55.8614461  18.2574993  74.7364662  56.3468533  18.7588380
  74.5309295  53.3139767  21.0010736  75.1602413  53.8500067  20.7231807
  74.6995157  53.2217126  21.8524302  74.6487089  53.3801130  21.0859264
  74.3323210  58.1010962  23.2737148  75.1596639  57.8296111  23.3295762
  74.3531056  58.8971804  23.6300966  74.4576060  58.1790716  23.3352331
  68.9092699  65.2474825  16.4607409  68.0680706  65.1478699  16.6686302
  69.1182707  66.0170305  16.8121729  68.8157392  65.3466868  16.5434723
  69.1962130  58.8020585  18.5467059  69.6563612  58.8759514  19.2842183
  69.2418237  59.6001839  18.1966880  69.2712685  58.9314732  18.6039816
  70.8445480  59.4687280  23.1139086  70.4531045  58.8220627  23.5494864
  71.0131343  60.0598715  23.7333342  70.8116390  59.4601548  23.2701792
  74.5378577  56.6563055  14.6873172  73.6914622  56.8285862  14.5614521
  74.5349710  55.8512398  15.0239000  74.4125727  56.5624083  14.7184299
  65.9849908  62.4309776  20.9218775  66.8475521  62.3305485  20.8356105
  65.6541691  61.8504485  20.3604347  66.0635104  62.3301402  20.8264181
  69.3451694  61.2552225  17.5829193  68.7204764  61.2670617  16.9755146
  69.0097289  61.7312400  18.2320434  69.2037186  61.3270742  17.5885762
  66.0577369  69.3152685  19.0232958  65.5277294  68.6245124  19.0727933
  66.3302463  69.3062870  18.1945666  66.0202092  69.2119817  18.9080374
  68.6142439  62.8645372  19.8004062  68.7735926  62.1088697  20.2055784
  68.4335333  63.4136312  20.4544800  68.6107798  62.8339186  19.9566768
  76.5562742  55.0306608  20.3554851  76.0603303  55.2270282  19.6646418
  77.3131804  55.4299276  20.1843653  76.5949567  55.1184342  20.2274988
  73.8265622  58.7048954  16.9458162  73.8508109  58.1709066  16.2570942
  74.0777095  58.1966263  17.6083753  73.8675540  58.5509858  16.9422807
  61.3373212  65.9880449  16.3801306  61.2316661  65.9427293  15.5153390
  60.5873432  66.3334229  16.6615591  61.2108815  66.0321357  16.2938636
  70.1066944  57.4319772  16.3263906  70.1465316  57.9328979  17.0398614
  69.2816609  57.5230166  16.0569829  69.9906470  57.5201588  16.3914445
  72.2896557  66.9980512  24.4284201  71.4392187  67.1352226  24.5641846
  72.4524685  66.2644290  24.8731903  72.1880420  66.9094613  24.5139800
  71.5281307  63.9480282  18.6237805  70.6973237  64.1154100  18.4173053
  71.4732825  63.5716233  19.4086691  71.3970722  63.9170013  18.7086333
  69.3365091  57.4389175  24.2594216  69.9617794  56.8951308  24.5323648
  68.8815571  56.9584092  23.6902006  69.3613351  57.2878656  24.2155810
  76.9055711  58.4089154  18.8189421  77.3310783  57.9561680  18.2072947
  76.2912705  57.8549225  19.0954208  76.8784357  58.2603130  18.7694446
  76.0407004  69.1442125  24.4333699  76.0002859  68.4991802  23.8478854
  76.8530322  69.0878742  24.7459111  76.1550157  69.0401092  24.3930648
  81.5301468  54.4137976  15.4884692  81.0232333  53.7067116  15.4205870
  82.3268902  54.0831165  15.6185769  81.5728708  54.2611127  15.4983687
  71.7284713  62.7739061  20.9883456  71.2163616  62.1660244  21.3468488
  71.5564209  63.4895654  21.4557432  71.6274350  62.7902361  21.1099680
  66.5750427  61.2176637  23.6385818  66.4053018  61.8778011  23.0934025
  66.1316377  61.4283198  24.3598307  66.4849761  61.3462619  23.6647447
  75.6053783  60.6963306  23.4285712  76.1625213  60.4677115  22.7964177
  75.2814848  61.4568972  23.1520924  75.6400193  60.7747143  23.2942209
  63.4752492  64.1223502  18.8974308  62.9279211  63.4524148  19.0155176
  64.2644870  63.7553350  18.9617775  63.5104676  63.9688489  18.9243008
  73.3236900  63.7830959  24.3937719  74.0748227  64.0982636  24.7077273
  73.5159477  63.5810130  23.5671641  73.4628314  63.7998341  24.3181115
  62.2339461  63.3344310  16.0520331  62.0561222  62.8820919  16.7775246
  61.9458483  64.1370471  16.2358808  62.1652414  63.3866868  16.1863834
  78.6370445  72.6641292  26.4868079  78.7467411  71.8749853  26.8424827
  78.9661342  72.5747229  25.6842418  78.7022851  72.5347145  26.4210470
  73.4662956  55.8267450  21.2634102  73.5990861  55.0298443  21.5915078
  73.8508108  56.3533853  21.8432378  73.5419285  55.7867366  21.3977605
  76.5395311  52.7497776  17.8615195  75.7341275  52.6395505  18.1783034
  76.4102046  52.8510232  17.0045061  76.4015444  52.7481446  17.7823236
  79.9961271  58.9143268  18.4554892  79.4124260  59.4152474  18.0432460
  80.3165565  58.4072824  17.8219216  79.9574447  58.9135103  18.3013400
  71.1251402  55.8226625  19.5111996  71.6695815  55.4817752  20.1016338
  71.1788338  56.6812086  19.6533281  71.2140522  55.8981884  19.6193869
  62.1733244  68.5677658  16.2549727  62.0757522  67.7573930  16.5639784
  62.9562113  68.5469452  15.8695995  62.2749380  68.4444748  16.2436590
  45.8776962   0.4662208  14.4291469  46.6911827   0.1947357  14.5896602
  45.7171928   0.1669748  13.6251665  45.9746910   0.3817134  14.3336875
  45.4123519   3.0463500  13.4208126  45.5220484   2.2572060  13.7764873
  45.7414415   2.9569436  12.6182464  45.4775924   2.9169353  13.3550517
  56.5085858  15.2458222  11.8609351  57.2152626  14.7510252  11.9896285
  56.6973794  15.6867303  11.1312009  56.6413764  15.2376572  11.7718396
  49.0018777  23.4430395   1.6863755  49.6456233  23.8843559   2.0759913
  49.3275033  22.6383821   1.5994014  49.1450606  23.3895590   1.7309232
  51.9486735  16.2827728   3.9823513  52.2309978  15.4879134   3.7610269
  52.6772895  16.7608315   4.0028574  52.0976299  16.2362325   3.9526528
  49.9914561  18.2190944   3.7907253  49.4741502  17.8598359   3.1868561
  50.6888952  17.6953119   3.8013319  50.0180142  18.0888632   3.7037512
  53.6478153  18.6685758   9.7523426  53.7361499  18.4811899  10.6001637
  54.0767865  18.0223188   9.3528273  53.7240255  18.5448766   9.8195178
  51.2148612  17.9516918   8.7341088  50.6519447  17.5389528   9.2580750
  51.9769636  17.8769824   9.1534232  51.2443061  17.8794319   8.8734089
  47.8223510  10.1790526  10.4658134  47.9944014  10.0696421  11.3143415
  48.3592868  10.8244932  10.2289326  47.9268514  10.2582528  10.5563230
  46.7248082  16.5522167   5.1476632  47.2646307  16.4093298   5.8180004
  46.0418029  16.9518917   5.5160658  46.7040236  16.5901837   5.3011054
  53.7598212  18.0994777  12.4167210  54.5438629  18.2125625  12.7822952
  53.5594807  17.2735914  12.6125896  53.8464237  17.9941497  12.5001596
  53.9168605  20.0104879   6.0633665  53.1183851  19.7704379   6.3207534
  54.3654617  20.0619272   6.8100713  53.8643217  19.9827270   6.2118590
  45.6024393  10.2766240   9.0904907  46.3264365  10.2619270   9.5769801
  45.7040529  10.9861595   8.5926875  45.7242602  10.3790943   9.0883693
  52.9769342  13.7565324  13.9553854  52.1842323  14.0708836  14.1406473
  53.0918269  13.9716793  13.1174638  52.8764753  13.8349161  13.8592188
  53.9053135  13.6585528   8.8939150  54.4791997  13.0212772   9.0487714
  53.8267939  13.6589610   8.0248808  53.9786370  13.5650639   8.7885561
  59.2273283  15.0294506   8.9024003  58.9911920  14.1982570   8.7836064
  59.8716512  14.9780113   9.4878848  59.2867954  14.8992194   8.9709897
  49.6843056   4.3198732  13.6704214  49.3696497   5.0898295  13.4073776
  49.3632989   3.7568988  13.0856440  49.5901975   4.3509001  13.5445563
  50.3892504  14.0614938   7.1127130  49.8904197  14.7730706   7.1912019
  51.1992728  14.3815605   7.0745292  50.4348610  14.2141787   7.1183699
  49.3159562   6.9195983  12.4089428  48.5059337   7.2253763  12.2979271
  49.7934248   7.6401565  12.5242012  49.2663041   7.0710584  12.4096499
  45.6503594  12.4558533   7.2788831  46.1624691  12.7342787   6.6297590
  45.3639936  13.1947827   7.6451644  45.6838457  12.6060887   7.2378709
  57.6020873  15.6226353   3.2504958  57.4635233  16.3207399   3.7553701
  56.8220871  15.4675009   2.8941140  57.4664100  15.7026519   3.2731232
  55.9398958  11.9222728   9.5027340  55.9346997  11.0502545   9.5069766
  56.6459952  12.1210897   9.0296796  56.0443962  11.8226602   9.4334375
  49.6669852  11.6499712   8.8741160  49.8113227  12.2300920   8.2384270
  50.0145500  12.0276009   9.5791015  49.7397313  11.7920416   8.8840155
  51.8389769  10.8489880   6.6566292  51.0913083  11.0420895   6.2514570
  51.9931294  10.0235100   6.4190413  51.7512197  10.7554992   6.5611698
  48.7397607  19.8402484   5.7402187  48.8887170  19.2805400   5.0875591
  49.5197609  19.9194486   6.1234706  48.8771700  19.7688049   5.6999136
  51.2650907  20.0117127   7.0186678  51.1894578  19.3425937   7.5737466
  51.1940766  20.7134915   7.5327344  51.2431514  20.0162034   7.1763526
  52.4711754   9.2102794   8.8727018  52.4070896  10.0712751   8.7447155
  52.6108942   8.8934787   8.0722570  52.4827224   9.2902961   8.7355231
  50.6542542  23.4185447   5.4764679  51.1438472  22.7196236   5.2940343
  50.0826774  23.1209317   6.0640736  50.6427072  23.2711670   5.5365719
  56.8509545  15.9847516  14.4291469  57.6644410  15.7132665  14.5896602
  56.6904512  15.6855056  13.6251665  56.9479494  15.9002442  14.3336875
  54.1281707   6.6681173   7.3686857  54.3423677   6.0292087   6.8150211
  53.5115606   7.1126997   6.9394719  54.0687036   6.6391317   7.2237289
  56.2920795   8.2770238   8.3070165  55.4797477   7.9696129   8.3883337
  56.7510730   7.7969238   8.8712877  56.2401180   8.1606731   8.4024759
  53.3874303   9.6830310  13.0898867  53.8573934  10.3072426  13.4766741
  53.4336183   9.0147285  13.6492082  53.4642179   9.6764990  13.2298938
  56.8630789  17.0453806   9.7014310  57.5010510  16.5514002   9.3676766
  56.2204881  16.9731207   9.1166537  56.8625016  16.9612815   9.5656665
  52.0808866   4.0018477  10.2077195  52.9082296   3.7303626  10.2635809
  52.1016712   4.7979319  10.5641013  52.2061716   4.0798232  10.2692378
  56.9185046  17.7373614   6.3419667  57.7077424  17.3862679   6.4621748
  57.0928644  18.5510003   6.0796300  57.0605327  17.8059472   6.3207535
  48.5313372  16.2913460   7.3517151  48.4233727  16.3015522   8.2179209
  48.7409154  17.1168241   7.1622104  48.5463483  16.4154535   7.4521242
  48.5931137   5.3694795  10.0479133  48.2016702   4.7228142  10.4834911
  48.7616999   5.9606230  10.6673388  48.5602047   5.3609063  10.2041839
  56.3076680  18.9935414   2.2471113  56.1096369  19.4826229   1.5527324
  55.6864391  19.1976656   2.8255246  56.1864245  19.0951952   2.2294336
  58.2250482  12.5599566   7.7816361  58.9484681  12.1072093   7.6027381
  57.9600445  12.8404232   6.9988689  58.2931756  12.5350535   7.6395076
  54.0069272  12.6583445   5.9311376  53.3926265  12.1141495   6.2260011
  54.5236557  12.1447681   5.4517192  53.9924934  12.5019854   5.9035605
  53.2465569  13.7287715   3.6655675  52.8193177  13.1037433   3.2321110
  53.2390513  13.4462637   4.4914682  53.1824710  13.5940495   3.7235502
  50.0382214  12.8988027  11.3624248  49.1877844  13.0359742  11.4981893
  50.2010341  12.1651806  11.8071949  49.9366077  12.8102129  11.4479847
  52.4879186  15.9443350   6.9104805  51.9804277  16.4979196   7.3545435
  52.1905832  16.0051640   6.0923579  52.3684071  16.0349661   6.8553261
  51.7321671  20.8767908   3.8161812  51.5087326  20.1186737   4.1845838
  51.2431515  20.9065929   3.0942251  51.6265120  20.7690132   3.7638553
  55.8446331   8.4562448   5.4425269  55.8244258   8.2745743   6.2960048
  55.8925532   9.3274467   5.4184852  55.8480972   8.5578986   5.5648564
  53.7892661  15.0449640  11.3673745  53.7488516  14.3999317  10.7818901
  54.6015979  14.9886257  11.6799157  53.9035814  14.9408607  11.3270695
  50.3800128  21.0968366   1.2698896  49.9660527  20.4342496   0.8802738
  51.0647503  21.2446225   0.7494590  50.4198500  21.0209024   1.1355393
  53.7465422  20.2558451   2.0222513  53.3481706  20.3660722   1.2543333
  53.1316642  20.4640518   2.6049073  53.5964312  20.3032019   1.9953812
  49.4770369   8.6746577   7.9223503  48.9649272   8.0667760   8.2808534
  49.3049866   9.3903169   8.3897479  49.3760006   8.6909876   8.0439727
  44.3236084   7.1184152  10.5725865  44.1538674   7.7785527  10.0274071
  43.8802034   7.3290713  11.2938354  44.2335418   7.2470134  10.5987494
  53.3539440   6.5970821  10.3625759  53.9110870   6.3684631   9.7304224
  53.0300505   7.3576487  10.0860971  53.3885850   6.6754658  10.2282256
  51.0722557   9.6838475  11.3277766  51.8233884   9.9990151  11.6417320
  51.2645134   9.4817645  10.5011687  51.2113971   9.7005856  11.2521161
  47.3454598  21.5377448   3.6712242  47.6601157  22.3513836   3.6790024
  47.7548011  21.1527666   4.3394401  47.4522696  21.6006150   3.7716334
  54.2979118  16.9547494   1.2416054  54.7690296  17.6687757   1.4106039
  54.6339296  16.3546245   1.7775924  54.4174233  16.9718959   1.3448430
  56.3856102  18.5648808  13.4208126  56.4953068  17.7757368  13.7764873
  56.7146999  18.4754744  12.6182464  56.4508508  18.4354661  13.3550517
  54.9353064  16.7465429   8.0043747  54.3874010  16.1223312   7.7363812
  55.3966093  16.9359701   7.2887826  54.9220273  16.6824479   7.8594178
  54.5011390  17.7516501   4.5353088  55.3209764  17.6079467   4.7969383
  54.2205468  18.3762700   5.0769526  54.5808134  17.8226853   4.6541027
  58.5565865  34.0319722  -1.9813874  57.8048765  33.6535260  -2.2097829
  59.0051877  34.0638155  -2.7295063  58.5115532  33.9805329  -2.1256371
  67.4818442  30.7643530  11.8609351  68.1885209  30.2695560  11.9896285
  67.6706377  31.2052611  11.1312009  67.6146348  30.7561880  11.7718396
  63.5495116  36.4059360  -0.6117215  63.9334496  36.9746259  -1.1512440
  63.4854258  35.6808870  -1.0911399  63.5968543  36.3834823  -0.7623352
  60.1350621  34.0438114   0.2848899  60.2360984  33.2338468   0.5946027
  59.5392367  33.9495060  -0.3451423  60.0623160  33.9103142   0.2375137
  59.9751361  38.9615703   1.6863755  60.6188816  39.4028867   2.0759913
  60.3007616  38.1569129   1.5994014  60.1183190  38.9080898   1.7309232
  53.3315666  30.0658401  -0.0898767  53.0965850  29.2326053  -0.1966499
  53.4701306  30.3463066  -0.9037567  53.3171328  29.9841904  -0.2256412
  55.6305753  22.2344131   2.8085540  55.0110785  21.6436778   2.6395555
  55.5289617  22.8255566   2.1749863  55.5243429  22.2348214   2.6890530
  60.6771941  31.9727678  -2.9416383  60.9987782  32.5132885  -3.5455075
  61.3244037  31.4024449  -2.8094094  60.8197996  31.9686853  -3.0109348
  55.3574886  25.7796413   5.0529109  55.2333583  26.3658858   5.6878928
  56.0093171  25.2856609   5.3541384  55.4348535  25.7935217   5.1915039
  60.3833227  28.9558130   4.3316620  61.0282230  28.4630573   4.0127569
  60.6235004  29.0982916   5.1582699  60.5143812  28.9035572   4.4066154
  62.9219318  31.8013036   3.9823513  63.2042561  31.0064441   3.7610269
  63.6505479  32.2793623   4.0028574  63.0708882  31.7547633   3.9526528
  54.8932990  34.9444071   1.1857439  54.4100568  35.6694561   1.1617022
  55.7056309  35.2420201   1.2967596  54.9423738  35.0946425   1.1984718
  60.9647144  33.7376252   3.7907253  60.4474086  33.3783667   3.1868561
  61.6621536  33.2138426   3.8013319  60.9912725  33.6073940   3.7037512
  64.6210736  34.1871066   9.7523426  64.7094082  33.9997207  10.6001637
  65.0500449  33.5408496   9.3528273  64.6972839  34.0634074   9.8195178
  62.1881196  33.4702226   8.7341088  61.6252031  33.0574836   9.2580750
  62.9502220  33.3955132   9.1534232  62.2175645  33.3979627   8.8734089
  57.7477188  35.4600247   1.3377719  58.4497767  34.9452236   1.3950475
  57.6674671  35.7874399   2.1424594  57.8400948  35.4314473   1.4650511
  58.7956094  25.6975834  10.4658134  58.9676598  25.5881729  11.3143415
  59.3325452  26.3430240  10.2289326  58.9001098  25.7767836  10.5563230
  57.0727963  31.6506599   0.8463327  57.9116862  31.8829532   0.8937088
  57.1039732  30.7810911   0.7770362  57.2009681  31.5563546   0.8427971
  57.6980666  32.0707474   5.1476632  58.2378891  31.9278605   5.8180004
  57.0150612  32.4704225   5.5160658  57.6772820  32.1087145   5.3011054
  64.7330796  33.6180085  12.4167210  65.5171212  33.7310933  12.7822952
  64.5327390  32.7921222  12.6125896  64.8196821  33.5126805  12.5001596
  53.1017811  28.2907765   5.3011054  52.8356226  27.4746882   5.4602044
  53.1156375  28.3360921   4.4306569  53.0642533  28.1764670   5.1964536
  57.8516417  21.8286144   7.9478061  57.1588214  21.3583123   8.1938793
  58.4676745  21.6024448   8.5219768  57.8400947  21.7253275   8.0687214
  53.5111225  29.0766545   2.5822798  53.3286798  29.0513431   1.7295090
  54.2460894  29.5465482   2.6211707  53.5925289  29.1427907   2.4620716
  56.5756976  25.7951548   9.0904907  57.2996949  25.7804578   9.5769801
  56.6773113  26.5046903   8.5926875  56.6975185  25.8976251   9.0883693
  63.9501926  29.2750632  13.9553854  63.1574907  29.5894144  14.1406473
  64.0650853  29.4902101  13.1174638  63.8497336  29.3534469  13.8592188
  64.8785719  29.1770836   8.8939150  65.4524580  28.5398080   9.0487714
  64.8000522  29.1774918   8.0248808  64.9518953  29.0835947   8.7885561
  53.4782135  25.9560045   2.7321864  54.0555638  25.8196496   3.3714110
  52.7796197  25.4995829   2.9867449  53.4603156  25.8682312   2.8644154
  60.2349437  27.6094101   0.9460348  59.9768681  26.7765836   0.9191647
  60.2897920  27.8351714   0.1052848  60.2049215  27.5191872   0.8180484
  59.2084149  25.1631863   1.4325242  58.6333741  25.3224032   2.0689203
  58.8319826  24.5267273   0.9693693  59.0686962  25.0929676   1.4579801
  62.8757438  23.6355213   6.2917621  62.4871871  23.2109430   5.6369812
  62.2112136  23.8837362   6.7994648  62.7204366  23.6093934   6.2705489
  48.9540968  24.8071938  -0.5530317  49.0401220  24.4303807   0.2283213
  49.5816766  24.4332384  -1.0310359  49.0597519  24.6957420  -0.5084840
  70.2005866  30.5479813   8.9024003  69.9644504  29.7167878   8.7836064
  70.8449095  30.4965421   9.4878848  70.2600537  30.4177501   8.9709897
  59.8504284  31.3375335  -0.3833260  60.4878231  31.0987082   0.1618533
  60.2759356  31.5412494  -1.1180099  60.0080451  31.3326345  -0.4116103
  54.5416927  33.5763671   3.5001044  54.5821072  33.8478522   2.6720823
  55.1011451  34.1005579   3.9158832  54.6300273  33.6939426   3.4392932
  60.6575640  19.8384040  13.6704214  60.3429081  20.6083602  13.4073776
  60.3365572  19.2754296  13.0856440  60.5634559  19.8694308  13.5445563
  62.2325756  31.8147757   1.2960526  62.3064765  31.6522929   2.1502376
  63.0495263  32.0037947   1.0521008  62.3642115  31.8184500   1.3858552
  55.9931513  32.1605620  -1.6745030  55.1669631  32.4067357  -1.8010752
  56.0543504  32.0817701  -0.8082972  55.8805680  32.1850569  -1.5656086
  60.7730342  34.7782500  -3.9726000  61.0628641  34.3871482  -4.6966774
  61.5033823  34.9599205  -3.5320725  60.9237226  34.7476314  -4.0143193
  61.3625087  29.5800246   7.1127130  60.8636781  30.2916014   7.1912019
  62.1725312  29.9000913   7.0745292  61.4081194  29.7327095   7.1183699
  58.7136258  36.7549883  -0.9065851  58.4936553  36.4647238  -0.1139184
  58.4930780  36.0964838  -1.4347938  58.6483852  36.6149591  -0.8676942
  57.6253205  28.8423199   1.3589851  57.3366454  28.2160671   1.8935578
  58.4936553  28.7843487   1.4254531  57.7113457  28.7410744   1.4480806
  60.8804213  38.1279273  -2.1235158  61.5328271  37.5955715  -1.8944132
  60.1829822  37.7747925  -1.7367284  60.8734931  37.9968796  -2.0322991
  57.8285478  30.4818450  -2.7167784  58.5831446  30.8631490  -2.5032321
  57.2356091  30.9329594  -2.2621087  57.8522192  30.6047278  -2.6184906
  60.2892145  22.4381291  12.4089428  59.4791921  22.7439070  12.2979271
  60.7666832  23.1586873  12.5242012  60.2395624  22.5895892  12.4096499
  59.1483705  31.6527012   2.6572331  58.6264458  31.7927303   3.3424196
  59.5357725  30.8937676   2.8474449  59.1287406  31.5612536   2.7873408
  56.6236177  27.9743841   7.2788831  57.1357274  28.2528094   6.6297590
  56.3372520  28.7133135   7.6451644  56.6571040  28.1246195   7.2378709
  53.7103084  22.4814033  -2.4247433  53.8119220  23.2840194  -2.0966457
  54.5058970  22.2801369  -2.7224352  53.8430989  22.5699932  -2.4212077
  60.1419903  20.0670230   7.3389872  59.9503100  20.0825364   8.1889296
  60.9918499  20.2633904   7.3156527  60.2395625  20.0984581   7.4613167
  54.5266816  22.5961211   5.3173689  54.3852307  21.7445152   5.4418197
  54.8107379  22.6389872   4.4935895  54.5474662  22.4760961   5.2141313
  68.5753457  31.1411661   3.2504958  68.4367816  31.8392707   3.7553701
  67.7953455  30.9860317   2.8941140  68.4396684  31.2211827   3.2731232
  66.9131542  27.4408036   9.5027340  66.9079580  26.5687853   9.5069766
  67.6192536  27.6396205   9.0296796  67.0176546  27.3411910   9.4334375
  60.6402435  27.1685020   8.8741160  60.7845811  27.7486228   8.2384270
  60.9878084  27.5461317   9.5791015  60.7129897  27.3105724   8.8840155
  62.8122353  26.3675188   6.6566292  62.0645667  26.5606203   6.2514570
  62.9663878  25.5420408   6.4190413  62.7244780  26.2740300   6.5611698
  59.7130190  35.3587792   5.7402187  59.8619754  34.7990708   5.0875591
  60.4930192  35.4379794   6.1234706  59.8504284  35.2873357   5.6999136
  62.2383491  35.5302435   7.0186678  62.1627162  34.8611245   7.5737466
  62.1673350  36.2320223   7.5327344  62.2164098  35.5347342   7.1763526
  63.0524130  20.2625739   7.5461695  63.5096744  20.9949713   7.6734488
  63.1280458  19.8392204   8.3048951  63.1315100  20.3082977   7.6762772
  55.2957121  20.5091559   8.6351139  54.7599310  19.8971917   8.9511906
  55.3574886  21.0839695   9.2884806  55.2252754  20.5038487   8.7786566
  62.8953738  34.0503434  -2.1489716  63.6603629  33.7813077  -2.4707052
  62.7931828  33.5653444  -1.4319653  62.9935233  33.9392998  -2.0909889
  60.9306508  22.2527843   4.3903519  60.1402582  22.0719303   4.7120855
  61.3267130  21.4754796   4.3733814  60.8723384  22.1115304   4.4356068
  63.4444338  24.7288102   8.8727018  63.3803479  25.5898059   8.7447155
  63.5841526  24.4120095   8.0722570  63.4559808  24.8088269   8.7355231
  62.1263432  27.4220241   3.0143221  61.7025681  27.6224741   2.2782240
  61.9508287  26.5749089   3.1267521  62.0374312  27.3269023   2.9216911
  61.6275125  38.9370754   5.4764679  62.1171056  38.2381544   5.2940343
  61.0559357  38.6394624   6.0640736  61.6159655  38.7896978   5.5365719
  57.4145877  27.9172293  -1.5528806  57.5710496  27.8519096  -0.6972814
  57.7546470  28.6920845  -1.7650127  57.4879112  28.0221491  -1.4574212
  67.8242129  31.5032824  14.4291469  68.6376994  31.2317973  14.5896602
  67.6637095  31.2040364  13.6251665  67.9212077  31.4187750  14.3336875
  65.1014291  22.1866481   7.3686857  65.3156260  21.5477395   6.8150211
  64.4848190  22.6312305   6.9394719  65.0419620  22.1576625   7.2237289
  53.9880138  25.1007243  -1.2368039  54.3679103  25.5191788  -1.9007772
  53.4135503  25.6820699  -0.9299196  53.9591463  25.2485102  -1.2891298
  67.2653379  23.7955546   8.3070165  66.4530060  23.4881437   8.3883337
  67.7243313  23.3154546   8.8712877  67.2133763  23.6792039   8.4024759
  64.3606886  25.2015618  13.0898867  64.8306517  25.8257734  13.4766741
  64.4068766  24.5332593  13.6492082  64.4374762  25.1950298  13.2298938
  67.8363373  32.5639114   9.7014310  68.4743093  32.0699310   9.3676766
  67.1937464  32.4916515   9.1166537  67.8357599  32.4798123   9.5656665
  63.0541450  19.5203785  10.2077195  63.8814879  19.2488934  10.2635809
  63.0749296  20.3164627  10.5641013  63.1794300  19.5983540  10.2692378
  67.8917629  33.2558922   6.3419667  68.6810008  32.9047987   6.4621748
  68.0661227  34.0695311   6.0796300  68.0337911  33.3244780   6.3207535
  57.6310940  26.6667648   3.3947455  56.7898946  26.5671522   3.6026349
  57.8400948  27.4363128   3.7461776  57.5375632  26.7659691   3.4774770
  55.1086507  24.2887185   1.2232206  54.7143204  24.3630197   0.4482316
  54.5526624  24.6745131   1.7740568  54.9689319  24.3568960   1.1899866
  61.4427605  24.5949047   2.6445053  61.1390742  24.0405036   3.2455461
  60.7407025  24.7741257   2.1573087  61.2943814  24.5393830   2.6614759
  59.5045956  31.8098768   7.3517151  59.3966311  31.8200830   8.2179209
  59.7141737  32.6353548   7.1622104  59.5196067  31.9339843   7.4521242
  57.5219748  29.0611410   4.8139088  56.9307681  29.7020909   4.7842103
  58.2840771  29.4849028   4.7870388  57.5468008  29.2187249   4.8054235
  57.9180370  20.2213408   5.4807106  58.3781852  20.2952338   6.2182230
  57.9636477  21.0194662   5.1306927  57.9930926  20.3507555   5.5379862
  59.5663720  20.8880103  10.0479133  59.1749285  20.2413450  10.4834911
  59.7349583  21.4791538  10.6673388  59.5334631  20.8794371  10.2041839
  67.2809264  34.5120722   2.2471113  67.0828953  35.0011537   1.5527324
  66.6596975  34.7161964   2.8255246  67.1596828  34.6137260   2.2294336
  54.7068148  23.8502599   7.8558822  55.5693761  23.7498308   7.7696152
  54.3759931  23.2697308   7.2944394  54.7853345  23.7494226   7.7604228
  69.1983066  28.0784874   7.7816361  69.9217265  27.6257401   7.6027381
  68.9333028  28.3589540   6.9988689  69.2664339  28.0535843   7.6395076
  58.0669934  22.6745048   4.5169240  57.4423004  22.6863440   3.9095193
  57.7315529  23.1505223   5.1660480  57.9255426  22.7463565   4.5225809
  54.7795610  30.7345508   5.9573005  54.2495534  30.0437947   6.0067979
  55.0520703  30.7255693   5.1285713  54.7420332  30.6312640   5.8420421
  64.9801855  28.1768753   5.9311376  64.3658848  27.6326803   6.2260011
  65.4969140  27.6632989   5.4517192  64.9657518  28.0205162   5.9035605
  64.2198152  29.2473023   3.6655675  63.7925761  28.6222741   3.2321110
  64.2123097  28.9647944   4.4914682  64.1557294  29.1125803   3.7235502
  57.3360680  24.2838196   6.7344109  57.4954166  23.5281520   7.1395831
  57.1553573  24.8329135   7.3884846  57.3326039  24.2532009   6.8906815
  50.0591452  27.4073272   3.3141353  49.9534901  27.3620116   2.4493437
  49.3091672  27.7527053   3.5955638  49.9327055  27.4514180   3.2278683
  58.8285184  18.8512595   3.2603953  58.8683556  19.3521802   3.9738661
  58.0034849  18.9422989   2.9909876  58.7124710  18.9394412   3.3254491
  61.0114797  28.4173335  11.3624248  60.1610428  28.5545050  11.4981893
  61.1742925  27.6837114  11.8071949  60.9098661  28.3287437  11.4479847
  60.2499548  25.3673105   5.5577852  59.4191477  25.5346923   5.3513100
  60.1951065  24.9909056   6.3426737  60.1188963  25.3362836   5.6426380
  58.0583331  18.8581998  11.1934263  58.6836034  18.3144131  11.4663695
  57.6033811  18.3776916  10.6242053  58.0831592  18.7071479  11.1495857
  63.4611770  31.4628658   6.9104805  62.9536861  32.0164504   7.3545435
  63.1638416  31.5236947   6.0923579  63.3416655  31.5534969   6.8553261
  55.1588802  26.7063649  -3.3149907  55.6681031  27.3028156  -2.9338602
  55.6323074  26.4389622  -3.9973488  55.3032178  26.7549464  -3.3595385
  62.7054255  36.3953216   3.8161812  62.4819909  35.6372045   4.1845838
  62.2164098  36.4251237   3.0942251  62.5997704  36.2875440   3.7638553
  57.5179334  23.3419907  -0.4476727  56.7991323  23.7584040  -0.1803863
  57.8891696  23.9074146  -0.9985089  57.4671265  23.4869189  -0.4893920
  66.8178914  23.9747756   5.4425269  66.7976842  23.7931051   6.2960048
  66.8658115  24.8459775   5.4184852  66.8213555  24.0764294   5.5648564
  64.7625244  30.5634948  11.3673745  64.7221099  29.9184625  10.7818901
  65.5748563  30.5071565  11.6799157  64.8768398  30.4593915  11.3270695
  61.3532712  36.6153674   1.2698896  60.9393110  35.9527804   0.8802738
  62.0380086  36.7631533   0.7494590  61.3931084  36.5394332   1.1355393
  64.7198006  35.7743759   2.0222513  64.3214289  35.8846029   1.2543333
  64.1049226  35.9825825   2.6049073  64.5696895  35.8217327   1.9953812
  60.4502953  24.1931885   7.9223503  59.9381856  23.5853067   8.2808534
  60.2782449  24.9088477   8.3897479  60.3492590  24.2095184   8.0439727
  55.2968668  22.6369460  10.5725865  55.1271258  23.2970835  10.0274071
  54.8534618  22.8476021  11.2938354  55.2068001  22.7655442  10.5987494
  64.3272023  22.1156129  10.3625759  64.8843454  21.8869939   9.7304224
  64.0033088  22.8761795  10.0860971  64.3618434  22.1939966  10.2282256
  52.1970732  25.5416325   5.8314355  51.6497452  24.8716971   5.9495223
  52.9863110  25.1746173   5.8957822  52.2322916  25.3881312   5.8583055
  62.0455141  25.2023782  11.3277766  62.7966468  25.5175459  11.6417320
  62.2377717  25.0002953  10.5011687  62.1846555  25.2191164  11.2521161
  50.9557702  24.7537133   2.9860378  50.7779463  24.3013742   3.7115293
  50.6676724  25.5563295   3.1698855  50.8870655  24.8059691   3.1203881
  52.6930172  27.2864857   0.0982137  51.8275691  27.2750547  -0.0135092
  52.7928987  27.0995080   0.9453276  52.5804339  27.2570918   0.2071081
  58.3187181  37.0562756   3.6712242  58.6333740  37.8699144   3.6790024
  58.7280595  36.6712974   4.3394401  58.4255279  37.1191458   3.7716334
  65.2711701  32.4732802   1.2416054  65.7422879  33.1873065   1.4106039
  65.6071880  31.8731553   1.7775924  65.3906816  32.4904267   1.3448430
  67.3588686  34.0834116  13.4208126  67.4685651  33.2942676  13.7764873
  67.6879582  33.9940052  12.6182464  67.4241091  33.9539969  13.3550517
  62.1881196  17.2460273   8.1974149  62.3209102  16.4491266   8.5255125
  62.5726349  17.7726676   8.7772425  62.2637525  17.2060190   8.3317652
  65.9085647  32.2650737   8.0043747  65.3606593  31.6408620   7.7363812
  66.3698676  32.4545009   7.2887826  65.8952857  32.2009787   7.8594178
  59.8469643  17.2419448   6.4452043  60.3914056  16.9010575   7.0356384
  59.9006579  18.1004910   6.5873327  59.9358762  17.3174707   6.5533916
  55.6600202  31.0035864   3.3190851  56.2645059  30.9631698   2.6904671
  55.4527514  31.8507016   3.3494906  55.7189099  31.1223867   3.2306967
  65.4743974  33.2701809   4.5353088  66.2942348  33.1264775   4.7969383
  65.1938051  33.8948008   5.0769526  65.5540717  33.3412161   4.6541027
  50.8951484  29.9870482   3.1889774  50.7975762  29.1766753   3.4979830
  51.6780354  29.9662275   2.8036042  50.9967620  29.8637572   3.1776637
  78.4551025  46.2828838  11.8609351  79.1617793  45.7880868  11.9896285
  78.6438961  46.7237919  11.1312009  78.5878931  46.2747188  11.7718396
  66.6038337  37.7529439   2.8085540  65.9843368  37.1622086   2.6395555
  66.5022200  38.3440874   2.1749863  66.4976012  37.7533522   2.6890530
  66.3307470  41.2981721   5.0529109  66.2066166  41.8844166   5.6878928
  66.9825754  40.8041917   5.3541384  66.4081119  41.3120525   5.1915039
  73.1613780  48.9887534   8.7341088  72.5984614  48.5760144   9.2580750
  73.9234803  48.9140440   9.1534232  73.1908228  48.9164935   8.8734089
  69.7688678  41.2161142  10.4658134  69.9409181  41.1067037  11.3143415
  70.3058035  41.8615548  10.2289326  69.8733682  41.2953144  10.5563230
  75.7063379  49.1365393  12.4167210  76.4903796  49.2496241  12.7822952
  75.5059974  48.3106530  12.6125896  75.7929405  49.0312112  12.5001596
  64.0750395  43.8093073   5.3011054  63.8088810  42.9932190   5.4602044
  64.0888959  43.8546229   4.4306569  64.0375117  43.6949978   5.1964536
  68.8249001  37.3471451   7.9478061  68.1320798  36.8768431   8.1938793
  69.4409328  37.1209756   8.5219768  68.8133531  37.2438583   8.0687214
  67.5489560  41.3136855   9.0904907  68.2729532  41.2989886   9.5769801
  67.6505696  42.0232211   8.5926875  67.6707769  41.4161559   9.0883693
  74.9234509  44.7935940  13.9553854  74.1307490  45.1079452  14.1406473
  75.0383436  45.0087408  13.1174638  74.8229920  44.8719777  13.8592188
  75.8518302  44.6956144   8.8939150  76.4257164  44.0583388   9.0487714
  75.7733106  44.6960226   8.0248808  75.9251537  44.6021255   8.7885561
  64.4514719  41.4745353   2.7321864  65.0288221  41.3381804   3.3714110
  63.7528780  41.0181137   2.9867449  64.4335740  41.3867619   2.8644154
  73.8490022  39.1540521   6.2917621  73.4604454  38.7294738   5.6369812
  73.1844720  39.4022670   6.7994648  73.6936949  39.1279242   6.2705489
  59.9273552  40.3257246  -0.5530317  60.0133804  39.9489114   0.2283213
  60.5549349  39.9517692  -1.0310359  60.0330103  40.2142728  -0.5084840
  71.6308223  35.3569348  13.6704214  71.3161665  36.1268910  13.4073776
  71.3098156  34.7939604  13.0856440  71.5367143  35.3879616  13.5445563
  72.3357671  45.0985554   7.1127130  71.8369365  45.8101322   7.1912019
  73.1457895  45.4186221   7.0745292  72.3813778  45.2512403   7.1183699
  71.2624729  37.9566599  12.4089428  70.4524505  38.2624378  12.2979271
  71.7399416  38.6772181  12.5242012  71.2128208  38.1081200  12.4096499
  67.5968761  43.4929149   7.2788831  68.1089858  43.7713402   6.6297590
  67.3105103  44.2318443   7.6451644  67.6303624  43.6431503   7.2378709
  71.1152486  35.5855538   7.3389872  70.9235683  35.6010672   8.1889296
  71.9651082  35.7819212   7.3156527  71.2128208  35.6169889   7.4613167
  65.4999399  38.1146519   5.3173689  65.3584891  37.2630460   5.4418197
  65.7839963  38.1575180   4.4935895  65.5207245  37.9946269   5.2141313
  77.8864126  42.9593344   9.5027340  77.8812164  42.0873161   9.5069766
  78.5925119  43.1581513   9.0296796  77.9909130  42.8597218   9.4334375
  71.6135019  42.6870328   8.8741160  71.7578395  43.2671536   8.2384270
  71.9610667  43.0646625   9.5791015  71.6862480  42.8291032   8.8840155
  73.7854936  41.8860496   6.6566292  73.0378250  42.0791511   6.2514570
  73.9396461  41.0605716   6.4190413  73.6977364  41.7925608   6.5611698
  74.0256713  35.7811047   7.5461695  74.4829327  36.5135021   7.6734488
  74.1013042  35.3577512   8.3048951  74.1047683  35.8268285   7.6762772
  66.2689704  36.0276867   8.6351139  65.7331894  35.4157225   8.9511906
  66.3307469  36.6025003   9.2884806  66.1985337  36.0223794   8.7786566
  71.9039091  37.7713151   4.3903519  71.1135166  37.5904611   4.7120855
  72.2999714  36.9940104   4.3733814  71.8455967  37.6300612   4.4356068
  74.4176921  40.2473410   8.8727018  74.3536063  41.1083367   8.7447155
  74.5574109  39.9305403   8.0722570  74.4292392  40.3273577   8.7355231
  78.7974712  47.0218132  14.4291469  79.6109578  46.7503281  14.5896602
  78.6369679  46.7225672  13.6251665  78.8944661  46.9373058  14.3336875
  76.0746874  37.7051789   7.3686857  76.2888844  37.0662703   6.8150211
  75.4580773  38.1497613   6.9394719  76.0152204  37.6761933   7.2237289
  78.2385962  39.3140854   8.3070165  77.4262644  39.0066744   8.3883337
  78.6975897  38.8339854   8.8712877  78.1866347  39.1977346   8.4024759
  75.3339470  40.7200926  13.0898867  75.8039101  41.3443042  13.4766741
  75.3801350  40.0517901  13.6492082  75.4107346  40.7135606  13.2298938
  74.0274033  35.0389093  10.2077195  74.8547463  34.7674242  10.2635809
  74.0481880  35.8349935  10.5641013  74.1526884  35.1168848  10.2692378
  68.6043523  42.1852956   3.3947455  67.7631530  42.0856830   3.6026349
  68.8133531  42.9548436   3.7461776  68.5108216  42.2844999   3.4774770
  66.0819090  39.8072493   1.2232206  65.6875788  39.8815505   0.4482316
  65.5259207  40.1930439   1.7740568  65.9421903  39.8754268   1.1899866
  70.4778539  47.3284076   7.3517151  70.3698894  47.3386138   8.2179209
  70.6874321  48.1538856   7.1622104  70.4928650  47.4525151   7.4521242
  68.4952331  44.5796718   4.8139088  67.9040264  45.2206217   4.7842103
  69.2573355  45.0034336   4.7870388  68.5200592  44.7372557   4.8054235
  68.8912954  35.7398716   5.4807106  69.3514436  35.8137646   6.2182230
  68.9369061  36.5379970   5.1306927  68.9663509  35.8692863   5.5379862
  70.5396304  36.4065411  10.0479133  70.1481869  35.7598758  10.4834911
  70.7082166  36.9976846  10.6673388  70.5067214  36.3979679  10.2041839
  65.6800732  39.3687907   7.8558822  66.5426345  39.2683616   7.7696152
  65.3492515  38.7882616   7.2944394  65.7585928  39.2679534   7.7604228
  69.0402518  38.1930356   4.5169240  68.4155588  38.2048748   3.9095193
  68.7048113  38.6690531   5.1660480  68.8988010  38.2648873   4.5225809
  65.7528193  46.2530816   5.9573005  65.2228118  45.5623255   6.0067979
  66.0253287  46.2441001   5.1285713  65.7152916  46.1497948   5.8420421
  68.3093263  39.8023504   6.7344109  68.4686750  39.0466828   7.1395831
  68.1286157  40.3514443   7.3884846  68.3058622  39.7717317   6.8906815
  61.0324036  42.9258580   3.3141353  60.9267485  42.8805424   2.4493437
  60.2824256  43.2712361   3.5955638  60.9059638  42.9699488   3.2278683
  69.8017768  34.3697903   3.2603953  69.8416140  34.8707110   3.9738661
  68.9767433  34.4608297   2.9909876  69.6857294  34.4579720   3.3254491
  71.9847381  43.9358643  11.3624248  71.1343011  44.0730358  11.4981893
  72.1475509  43.2022422  11.8071949  71.8831244  43.8472745  11.4479847
  71.2232131  40.8858413   5.5577852  70.3924061  41.0532231   5.3513100
  71.1683649  40.5094364   6.3426737  71.0921546  40.8548144   5.6426380
  69.0315915  34.3767306  11.1934263  69.6568618  33.8329439  11.4663695
  68.5766395  33.8962224  10.6242053  69.0564175  34.2256787  11.1495857
  75.7357828  46.0820256  11.3673745  75.6953683  45.4369933  10.7818901
  76.5481146  46.0256873  11.6799157  75.8500981  45.9779223  11.3270695
  71.4235537  39.7117192   7.9223503  70.9114440  39.1038375   8.2808534
  71.2515033  40.4273785   8.3897479  71.3225174  39.7280492   8.0439727
  66.2701251  38.1554768  10.5725865  66.1003842  38.8156143  10.0274071
  65.8267201  38.3661329  11.2938354  66.1800585  38.2840750  10.5987494
  75.3004607  37.6341437  10.3625759  75.8576037  37.4055247   9.7304224
  74.9765672  38.3947103  10.0860971  75.3351017  37.7125274  10.2282256
  63.1703316  41.0601633   5.8314355  62.6230035  40.3902279   5.9495223
  63.9595694  40.6931481   5.8957822  63.2055499  40.9066620   5.8583055
  73.0187724  40.7209090  11.3277766  73.7699051  41.0360767  11.6417320
  73.2110301  40.5188261  10.5011687  73.1579138  40.7376472  11.2521161
  61.9290285  40.2722441   2.9860378  61.7512046  39.8199050   3.7115293
  61.6409307  41.0748603   3.1698855  61.8603238  40.3244999   3.1203881
  78.3321269  49.6019424  13.4208126  78.4418235  48.8127984  13.7764873
  78.6612166  49.5125360  12.6182464  78.3973675  49.4725277  13.3550517
  73.1613780  32.7645581   8.1974149  73.2941685  31.9676574   8.5255125
  73.5458932  33.2911984   8.7772425  73.2370108  32.7245498   8.3317652
  70.8202226  32.7604756   6.4452043  71.3646639  32.4195883   7.0356384
  70.8739162  33.6190217   6.5873327  70.9091346  32.8360015   6.5533916
  61.8684067  45.5055790   3.1889774  61.7708345  44.6952061   3.4979830
  62.6512937  45.4847583   2.8036042  61.9700204  45.3822880   3.1776637
   1.7178232  56.8730162  56.2825815   1.6502732  56.8926121  55.4128402
   1.7033894  57.7160489  56.5081486   1.7056988  57.0003896  56.1878292
   6.7391777  70.8279560  49.4901138   6.7085781  71.6824196  49.6619407
   7.3373125  70.5274852  50.0487281   6.8228934  70.9096056  49.5975940
   3.8743656  60.7519799  51.4594062   3.5597097  61.4423278  51.8914484
   3.3570598  60.6964581  50.7579563   3.7508126  60.8454688  51.4191011
   3.2156090  70.7524300  47.5731472   2.6867561  70.9683934  48.2328779
   3.7381110  71.4460439  47.4932442   3.2144543  70.8867437  47.6587072
   8.1658101  68.9741005  56.7414938   7.3286522  69.0443192  56.9762533
   8.1346332  68.9765500  55.8689241   8.0376383  68.9851232  56.6474486
   5.8465941  64.0383787  55.3258661   6.4891849  64.1081891  55.9120576
   6.0988962  63.3713010  54.8238203   5.9788073  63.9510136  55.3385940
   8.2847443  68.8128424  51.0570624   8.0284008  68.0008366  50.8668507
   9.1276757  68.8205991  50.8300811   8.3713469  68.6940422  50.9955441
   2.4650536  62.7528048  55.7946778   2.8461047  62.0706219  56.1814652
   1.6613820  62.4637650  55.6122443   2.4026997  62.6095097  55.8250834
  12.6910815  72.3915470  56.2825815  12.6235315  72.4111429  55.4128402
  12.6766478  73.2345797  56.5081486  12.6789572  72.5189204  56.1878292
   3.1007162  63.7950627  59.6066905   3.8460754  63.6060438  59.1930330
   2.6844466  64.3208865  59.0480761   3.1492136  63.8452773  59.4631478
  10.4769433  71.1659856  54.5572410  11.0277354  70.5327925  54.7969502
  10.4613548  71.6975249  55.2487914  10.5554629  71.1508804  54.6951268
   4.1797839  69.4056189  53.6677006   3.8362605  68.6846525  54.0184256
   4.2790881  69.1970041  52.8255364   4.1439882  69.2680393  53.5948686
   2.6988804  67.3247774  55.5436549   1.8599905  67.3509053  55.3074812
   2.7693171  67.9718510  56.1241896   2.5857198  67.4243900  55.5945666
   1.1458082  64.2233151  50.2764165   1.8484435  64.0240900  49.7984123
   0.8802271  63.4509094  50.5833008   1.2104715  64.0796117  50.2509606
   3.2918192  58.8613821  53.4060712   3.4101760  59.3190284  52.6728014
   3.1180367  58.0559082  53.1196929   3.2837363  58.8107593  53.2561645
   3.0320115  69.2153753  60.2975338   2.2196797  68.9079643  60.3788511
   3.4910049  68.7352753  60.8618050   2.9800500  69.0990245  60.3929932
   5.3287109  69.8326467  56.2585399   4.9014717  69.7452815  55.5033498
   4.6913162  69.9404242  56.8440243   5.1716716  69.8359127  56.2330840
   2.5118190  62.6866686  52.8941258   2.7167783  62.6188994  53.7398255
   2.1844614  63.4925507  52.8262436   2.4933437  62.7952626  53.0100913
   5.7651877  63.2398450  52.3744024   5.1526191  63.7268852  52.7597755
   5.8616052  62.5641941  52.9181675   5.6889775  63.2116759  52.5122882
   6.3598585  72.3331675  55.8887230   6.1196808  71.4938090  55.8929657
   6.8390592  72.4131841  56.6128004   6.3950768  72.2213074  55.9962032
   2.0245354  68.1665853  47.5406203   1.4968372  68.2494597  46.8511912
   2.4841062  68.9083725  47.5370848   2.0147204  68.2886516  47.4380899
   8.3603772  69.1133132  53.8416489   8.1213542  69.0728966  53.0037274
   8.5237673  69.9604284  53.9682210   8.3494075  69.2325217  53.7369971
   1.0447719  61.8697638  59.2800071   0.5488280  62.0661312  58.5891638
   1.8016781  62.2690306  59.1088873   1.0834543  61.9575372  59.1520208
   7.3985116  72.4609492  58.2752084   7.9902956  73.1006743  58.3070282
   7.8344110  71.7632529  58.5644151   7.5503547  72.4527842  58.3232917
   1.3940688  65.2480184  57.7434641   1.8195759  64.7952710  57.1318167
   0.7797681  64.6940255  58.0199428   1.3669333  65.0994160  57.6939666
   4.4234257  69.6754710  50.5755227   3.7525447  70.2184413  50.4468292
   5.1174007  70.1449566  50.3336921   4.4263125  69.8252982  50.5210754
   4.5862385  66.1310594  53.4845600   4.9389995  65.7040317  54.1591399
   3.7277186  66.0461438  53.6146676   4.5111829  66.0555335  53.6040610
   2.5845650  69.3945963  57.4330442   2.5643578  69.2129258  58.2865221
   2.6324851  70.2657981  57.4090026   2.5880291  69.4962501  57.5553737
   6.0186445  61.2529006  54.4129912   5.5117309  60.5458146  54.3451090
   6.8153878  60.9222195  54.5430989   6.0613684  61.1002157  54.4228907
   1.9350461  67.7595618  50.3103576   1.7064154  67.7828320  49.4681934
   2.1948537  66.9353085  50.4298587   1.9396649  67.6411698  50.2028774
   4.6607167  66.7495556  50.5606734   4.6601393  66.5944212  51.4191011
   4.4563347  67.5958543  50.5048120   4.6306945  66.8516176  50.6794674
   4.4846248  65.7534298  57.3800112   3.9009237  66.2543504  56.9677680
   4.8050542  65.2463854  56.7464436   4.4459423  65.7526133  57.2258620
  14.2650775  74.3799129  53.4060712  14.3834343  74.8375592  52.6728014
  14.0912951  73.5744390  53.1196929  14.2569946  74.3292901  53.2561645
   1.4129056  33.8108293  43.2165862   1.3453556  33.8304252  42.3468449
   1.3984718  34.6538620  43.4421533   1.4007812  33.9382028  43.1218339
   6.4342601  47.7657691  36.4241184   6.4036605  48.6202328  36.5959454
   7.0323949  47.4652983  36.9827328   6.5179758  47.8474187  36.5315987
   2.9436002  53.1219868  50.7854571   3.6502769  52.6271898  50.9141505
   3.1323937  53.5628949  50.0557229   3.0763908  53.1138218  50.6963616
   2.4794106  48.9125386  43.8225766   3.0250066  49.5910472  43.8819736
   2.4210983  48.7712847  42.9627348   2.5510021  48.9917387  43.7037827
   4.2559175  50.3409993  34.6959494   4.1398701  51.0917679  35.1251632
   5.0515062  50.0833946  34.9455581   4.3563765  50.4144840  34.7963586
   1.9788481  51.0717637  33.0073784   1.8939776  51.9278604  33.1523353
   2.4672864  50.7961961  33.6755943   2.0377378  51.1574959  33.1275866
   3.5694480  37.6897930  38.3934109   3.2547921  38.3801409  38.8254531
   3.0521422  37.6342713  37.6919609   3.4458950  37.7832819  38.3531058
   2.9106914  47.6902431  34.5071519   2.3818385  47.9062065  35.1668825
   3.4331934  48.3838570  34.4272489   2.9095367  47.8245568  34.5927118
   8.3654967  53.2648736  39.8804564   7.5352670  53.4759379  40.0437980
   8.3164219  52.4385790  39.6046847   8.2361702  53.1738342  39.8641929
   7.8608925  45.9119136  43.6754985   7.0237346  45.9821324  43.9102579
   7.8297156  45.9143631  42.8029287   7.7327207  45.9229363  43.5814533
   2.5839111  50.1074813  39.2666876   3.3396626  50.5406327  39.3055785
   2.6901435  49.4579583  39.8401513   2.7109281  50.0752297  39.3564902
   5.6219282  53.9348090  40.0169279   5.1854514  53.9384833  40.7728251
   5.2882197  54.6153589  39.5848857   5.5081902  54.0360546  40.0650112
   5.5416765  40.9761918  42.2598707   6.1842673  41.0460023  42.8460623
   5.7939786  40.3091141  41.7578249   5.6738897  40.8888267  42.2725987
   8.7563628  50.6529010  38.9088917   9.4180062  50.0919679  38.8084825
   8.1155040  50.1581041  39.2341608   8.7592496  50.4965419  38.9421257
   5.0428459  51.6694393  38.6500905   5.2784048  51.8139591  37.8227756
   5.1918023  52.4336801  39.0432419   5.0994262  51.8033447  38.5864509
   6.8718916  50.5096058  36.4870509   7.2027133  51.0423699  35.8810604
   7.4452004  50.5634946  37.1432460   7.0052595  50.5965627  36.4948291
   2.0850805  48.3560961  37.1694089   2.1797659  49.0950255  37.6233715
   1.4609648  47.9278437  37.6028654   2.0059835  48.4022282  37.3002237
   2.3373826  50.2009701  30.4031041   2.2553989  50.2711888  31.2686028
   2.9753547  50.7639445  30.2114782   2.4193663  50.2948672  30.5020991
   7.9798267  45.7506555  37.9910671   7.7234832  44.9386497  37.8008554
   8.8227581  45.7584122  37.7640858   8.0664293  45.6318553  37.9295488
   2.1601360  39.6906179  42.7286825   2.5411871  39.0084350  43.1154699
   1.3564644  39.4015781  42.5462490   2.0977821  39.5473228  42.7590881
   5.6623426  52.9056151  47.8269224   5.4262064  52.0744216  47.7081284
   6.3066655  52.8541759  48.4124068   5.7218097  52.7753839  47.8955117
   6.6859847  52.6900600  43.8897518   6.3805664  53.4228657  44.2510834
   5.9666063  52.2838530  43.6090304   6.5347189  52.7382333  43.9010655
  12.3861639  49.3293601  43.2165862  12.3186139  49.3489560  42.3468449
  12.3717302  50.1723928  43.4421533  12.3740396  49.4567335  43.1218339
   2.7957986  40.7328759  46.5406952   3.5411578  40.5438569  46.1270377
   2.3795290  41.2586996  45.9820808   2.8442960  40.7830904  46.3971525
  10.1720256  48.1037987  41.4912457  10.7228178  47.4706056  41.7309549
  10.1564372  48.6353380  42.1827961  10.2505453  48.0886935  41.6291315
   3.8748663  46.3434321  40.6017053   3.5313429  45.6224656  40.9524303
   3.9741705  46.1348172  39.7595411   3.8390706  46.2058524  40.5288733
   0.8068270  55.7498809  35.5678120   0.5654946  55.0166670  35.1605185
   0.9869603  56.2985666  34.9144454   0.7975894  55.7221200  35.4108343
   2.3939628  44.2625905  42.4776596   1.5550729  44.2887184  42.2414859
   2.4643995  44.9096641  43.0581942   2.2808022  44.3622031  42.5285713
   0.8408906  41.1611282  37.2104212   1.5435259  40.9619031  36.7324170
   0.5753095  40.3887225  37.5173055   0.9055539  41.0174248  37.1849653
   6.2697152  49.4693892  39.7637838   6.1831126  49.6249318  40.6172616
   5.8147632  50.1131968  39.3897243   6.1900409  49.5869647  39.8344944
   4.0371017  53.4987999  42.1750178   3.8985376  54.1969044  42.6798921
   3.2571015  53.3436655  41.8186360   3.9014244  53.5788165  42.1976452
   2.3749102  49.7984374  48.4272560   2.3697140  48.9264191  48.4314986
   3.0810096  49.9972543  47.9542016   2.4794106  49.6988248  48.3579595
   5.5324390  52.8566252  32.9366678   5.1531198  52.0703390  32.9295967
   4.8690635  53.4053109  32.7938322   5.3782864  52.8211076  32.9147474
   2.9869016  35.7991952  40.3400758   3.1052584  36.2568415  39.6068061
   2.8131191  34.9937213  40.0536976   2.9788187  35.7485724  40.1901692
   1.7767754  52.2446611  41.0408185   1.1012756  52.0131843  41.5421572
   1.7860130  51.6367794  40.4150290   1.6786258  52.1205536  41.0224338
   3.7784488  55.1011743  33.2718363   3.8604326  55.9078730  32.9479814
   4.2634231  55.1207703  33.9959137   3.8621646  55.2232406  33.3305262
   3.2859689  53.8609162  53.3536689   4.0994554  53.5894311  53.5141822
   3.1254655  53.5616702  52.5496885   3.3829637  53.7764088  53.2582095
   1.9736519  57.4661567  37.7386298   1.5816310  57.1628282  37.0209165
   2.1289591  58.3030657  37.5491252   1.9390108  57.5445404  37.6042795
   2.7270939  46.1531884  47.2315385   1.9147620  45.8457774  47.3128557
   3.1860873  45.6730884  47.7958097   2.6751323  46.0368376  47.3269979
   2.1376193  54.0311556  37.6792329   1.7790848  54.2026199  38.4556361
   1.6514904  54.4924762  37.1220327   2.0134890  54.1250527  37.7117598
   3.2980933  54.9215452  48.6259530   3.9360653  54.4275648  48.2921986
   2.6555024  54.8492852  48.0411757   3.2975159  54.8374461  48.4901885
   5.0237933  46.7704598  43.1925445   4.5965541  46.6830947  42.4373545
   4.3863986  46.8782373  43.7780289   4.8667540  46.7737258  43.1670887
   3.3535189  55.6135260  45.2664887   4.1427568  55.2624325  45.3866968
   3.5278787  56.4271649  45.0041520   3.4955471  55.6821117  45.2452755
   2.2069014  39.6244817  39.8281305   2.4118607  39.5567125  40.6738302
   1.8795437  40.4303638  39.7602482   2.1884261  39.7330757  39.9440960
   5.4602701  40.1776581  39.3084070   4.8477015  40.6646983  39.6937802
   5.5566876  39.5020072  39.8521722   5.3840599  40.1494890  39.4462929
   9.1027729  51.2493518  44.7361587   9.1610853  51.6980167  45.4821563
   8.4694197  51.6592331  44.2991667   9.0179024  51.3767253  44.7814135
   2.7426824  56.8697060  41.1716333   2.5446513  57.3587874  40.4772544
   2.1214535  57.0738301  41.7500466   2.6214388  56.9713598  41.1539556
   6.0549409  49.2709806  42.8227277   5.8147632  48.4316221  42.8269703
   6.5341416  49.3509972  43.5468050   6.0901592  49.1591205  42.9302079
   1.7196178  45.1043985  34.4746250   1.1919196  45.1872729  33.7851959
   2.1791886  45.8461856  34.4710895   1.7098028  45.2264647  34.3720945
   8.0554596  46.0511263  40.7756536   7.8164366  46.0107097  39.9377321
   8.2188497  46.8982415  40.9022257   8.0444899  46.1703348  40.6710018
   4.6600626  50.4361212  46.7061581   5.3834825  49.9833739  46.5272601
   4.3950588  50.7165878  45.9233909   4.7281899  50.4112181  46.5640296
   1.2733260  53.6747548  33.6055907   1.9967459  54.1405661  33.4620480
   0.8333851  53.7421158  32.8553504   1.3148952  53.7531385  33.4740689
   7.0935940  49.3987623  45.2092131   7.6853780  50.0384874  45.2410329
   7.5294934  48.7010660  45.4984198   7.2454371  49.3905973  45.2572963
   1.5337110  57.7368253  33.7653968   0.8166420  57.5629115  33.3001206
   2.1843848  57.5020825  33.2329454   1.5238960  57.6764046  33.6183186
   4.1185081  46.6132842  37.5095273   3.4476271  47.1562544  37.3808339
   4.8124831  47.0827697  37.2676968   4.1213949  46.7631113  37.4550801
   4.2813209  43.0688725  40.4185647   4.6340819  42.6418448  41.0931445
   3.4228010  42.9839569  40.5486723   4.2062653  42.9933466  40.5380657
   2.2796474  46.3324094  44.3670489   2.2594402  46.1507389  45.2205268
   2.3275675  47.2036112  44.3430072   2.2831115  46.4340632  44.4893784
   5.7137269  38.1907137  41.3469959   5.2068133  37.4836277  41.2791137
   6.5104702  37.8600326  41.4771036   5.7564508  38.0380289  41.3568954
   1.6301285  44.6973749  37.2443623   1.4014978  44.7206451  36.4021981
   1.8899361  43.8731216  37.3638633   1.6347473  44.5789829  37.1368820
   7.9157409  52.7072064  34.3310823   8.2991014  53.4563420  34.5608920
   7.1201522  52.9537883  34.0722813   7.8551191  52.8541758  34.3268397
   4.3557991  43.6873687  37.4946781   4.3552217  43.5322343  38.3531057
   4.1514171  44.5336674  37.4388167   4.3257769  43.7894307  37.6134721
   2.0798843  48.3671188  41.1482988   2.5752508  47.6494184  41.1087008
   1.2698619  48.0641986  41.0337475   2.0342736  48.2168835  41.1256714
   4.1450662  51.1174876  43.8360117   4.5705733  50.5949298  43.2830542
   3.7807582  51.7155713  43.3148740   4.1537264  51.1285103  43.6769126
   0.7329261  54.8309140  40.1661274   1.2040439  55.5449403  40.3351259
   1.0689440  54.2307890  40.7021144   0.8524376  54.8480605  40.2693650
   2.8206246  56.4410454  52.3453346   2.9303211  55.6519014  52.7010093
   3.1497142  56.3516390  51.5427684   2.8858652  56.3116307  52.2795737
   1.3703207  54.6227074  46.9288967   0.8224153  53.9984958  46.6609032
   1.8316236  54.8121346  46.2133046   1.3570417  54.5586125  46.7839398
   4.1797072  42.6912429  44.3140159   3.5960061  43.1921635  43.9017727
   4.5001366  42.1841985  43.6804482   4.1410247  42.6904264  44.1598666
   0.9361534  55.6278147  43.4598308   1.7559908  55.4841113  43.7214603
   0.6555611  56.2524346  44.0014746   1.0158277  55.6988499  43.5786247
  17.4075184  63.2842999  36.4241184  17.3769188  64.1387635  36.5959454
  18.0056533  62.9838291  36.9827328  17.4912342  63.3659495  36.5315987
  10.6074869  62.3718650  41.1794115   9.7512764  62.5327148  41.2303232
  10.6542523  61.5010714  41.1999176  10.4873980  62.2669452  41.1900181
   4.9916009  71.9081368  36.9431346   4.2398908  71.5296906  36.7147391
   5.4402020  71.9399801  36.1950157   4.9465675  71.8566975  36.7988849
  13.9168585  68.6405175  50.7854571  14.6235353  68.1457206  50.9141505
  14.1056521  69.0814257  50.0557229  14.0496491  68.6323526  50.6963616
  10.4440969  72.3306737  32.3716893  10.1092337  73.0083659  31.9361116
  10.9567839  71.9412048  31.7833765  10.4706550  72.3731315  32.2203685
  13.4526690  64.4310694  43.8225766  13.9982650  65.1095780  43.8819736
  13.3943566  64.2898155  42.9627348  13.5242604  64.5102695  43.7037827
   6.5700765  71.9199760  39.2094119   6.6711128  71.1100114  39.5191247
   5.9742510  71.8256706  38.5793797   6.4973303  71.7864788  39.1620357
  15.2291759  65.8595301  34.6959494  15.1131285  66.6102987  35.1251632
  16.0247645  65.6019254  34.9455581  15.3296348  65.9330148  34.7963586
   2.0655897  60.1105777  41.7330760   1.4460928  59.5198424  41.5640775
   1.9639760  60.7017212  41.0995083   1.9593572  60.1109859  41.6135750
   7.1122084  69.8489324  35.9828837   7.4337925  70.3894531  35.3790145
   7.7594181  69.2786095  36.1151126   7.2548139  69.8448499  35.9135872
   9.1623792  61.8505319  36.0663223   9.8603957  62.0293446  36.5584687
   9.4776125  61.3275658  35.4433613   9.3119129  61.7999091  36.0465234
   1.7925030  63.6558059  43.9774329   1.6683726  64.2420504  44.6124148
   2.4443314  63.1618254  44.2786604   1.8698679  63.6696863  44.1160259
   9.3511728  68.2375764  36.0543015   9.7905363  67.6292864  36.4997788
   9.2016390  67.8583137  35.2828480   9.3933193  68.0914235  36.0062182
   6.8183371  66.8319776  43.2561840   7.4632373  66.3392219  42.9372789
   7.0585148  66.9744562  44.0827919   6.9493956  66.7797218  43.3311374
   9.3569462  69.6774681  42.9068733   9.6392705  68.8826087  42.6855489
  10.0855622  70.1555269  42.9273794   9.5059026  69.6309278  42.8771748
   7.3350656  57.2197715  40.1484498   7.0053986  57.6708859  39.4788197
   6.6595658  57.1413879  40.6957504   7.1861092  57.2748851  40.1307721
  12.9521064  66.5902945  33.0073784  12.8672359  67.4463912  33.1523353
  13.4405447  66.3147269  33.6755943  13.0109961  66.6760267  33.1275866
  14.5427064  53.2083238  38.3934109  14.2280505  53.8986717  38.8254531
  14.0254005  53.1528021  37.6919609  14.4191534  53.3018127  38.3531058
  13.8839497  63.2087739  34.5071519  13.3550969  63.4247373  35.1668825
  14.4064517  63.9023878  34.4272489  13.8827950  63.3430876  34.5927118
  19.3387550  68.7834044  39.8804564  18.5085253  68.9944687  40.0437980
  19.2896803  67.9571098  39.6046847  19.2094286  68.6923650  39.8641929
   5.7739105  67.1050956  33.3078987   5.1896320  67.6100987  33.7144851
   5.3709200  66.8793343  32.5675579   5.6278409  67.1459204  33.2584012
   7.3997288  71.6137898  42.7152473   6.8824230  71.2545313  42.1113781
   8.0971679  71.0900072  42.7258539   7.4262869  71.4835586  42.6282732
  11.0560880  72.0632712  48.6768646  11.1444226  71.8758852  49.5246857
  11.4850592  71.4170141  48.2773493  11.1322982  71.9395720  48.7440398
   8.6231340  71.3463872  47.6586308   8.0602174  70.9336482  48.1825970
   9.3852363  71.2716778  48.0779452   8.6525788  71.2741272  47.7979309
  10.2316320  63.3516608  31.7847908  10.4712323  63.5594592  30.9723251
  10.5532161  62.5474117  31.8936852  10.3153478  63.2630709  31.6808461
   5.5406610  55.2810004  35.6307446   6.2952578  55.6488321  35.3924496
   5.3634144  55.6549558  36.3986625   5.6261088  55.3908192  35.7092334
  18.8341509  61.4304444  43.6754985  17.9969930  61.5006631  43.9102579
  18.8029740  61.4328939  42.8029287  18.7059791  61.4414671  43.5814533
   5.2306238  63.5737480  49.3903354   5.4026741  63.4643375  50.2388635
   5.7675595  64.2191885  49.1534546   5.3351242  63.6529482  49.4808450
   3.8963675  57.6880323  32.3285559   3.7139248  57.9052204  31.5026551
   4.7589288  57.8019336  32.3844173   3.9968264  57.7370221  32.2140046
   3.5078107  69.5268245  39.7708547   4.3467006  69.7591178  39.8182308
   3.5389876  68.6572556  39.7015582   3.6359824  69.4325192  39.7673191
   4.1330810  69.9469120  44.0721852   4.6729034  69.8040251  44.7425224
   3.4500756  70.3465871  44.4405878   4.1122963  69.9848791  44.2256274
   9.5763394  54.6906734  35.3634583  10.3049554  54.5122688  34.9172739
   9.6658287  55.5324813  35.5741761   9.6970056  54.7890612  35.3288100
  13.5571694  65.6260121  39.2666876  14.3129209  66.0591635  39.3055785
  13.6634019  64.9764891  39.8401513  13.6841865  65.5937605  39.3564902
  16.5951865  69.4533398  40.0169279  16.1587097  69.4570141  40.7728251
  16.2614781  70.1338897  39.5848857  16.4814485  69.5545854  40.0650112
  11.1680939  71.4941731  51.3412430  11.9521356  71.6072579  51.7068172
  10.9677534  70.6682868  51.5371116  11.2546965  71.3888450  51.4246816
  16.5149348  56.4947226  42.2598707  17.1575257  56.5645331  42.8460623
  16.7672369  55.8276449  41.7578249  16.6471481  56.4073575  42.2725987
   3.4425702  60.9654495  30.8408032   2.7283879  60.6792675  31.2530464
   3.9269670  61.3051121  31.4814419   3.4085065  60.9736145  30.9963667
   4.2866561  59.7047789  46.8723281   3.5938358  59.2344769  47.1184013
   4.9026888  59.4786094  47.4464989   4.2751091  59.6014921  46.9932434
  11.3251332  73.4051833  44.9878885  10.5266578  73.1651333  45.2452754
  11.7737344  73.4566226  45.7345933  11.2725944  73.3774224  45.1363810
  19.7296212  66.1714318  38.9088917  20.3912646  65.6104987  38.8084825
  19.0887624  65.6766349  39.2341608  19.7325079  66.0150727  38.9421257
  10.6173019  69.4684449  31.2169840  11.0324168  69.1369473  30.5254336
   9.7864949  69.2353352  31.0889977  10.5561028  69.3855705  31.0960687
  16.0161042  67.1879700  38.6500905  16.2516632  67.3324899  37.8227756
  16.1650606  67.9522108  39.0432419  16.0726846  67.3218755  38.5864509
   3.0107120  63.6713193  48.0150127   3.7347092  63.6566224  48.5015021
   3.1123256  64.3808549  47.5172095   3.1325329  63.7737897  48.0128913
  17.8451499  66.0281366  36.4870509  18.1759716  66.5609007  35.8810604
  18.4184587  66.0820254  37.1432460  17.9785178  66.1150935  36.4948291
  10.3852069  67.1512278  52.8799074   9.5925050  67.4655790  53.0651693
  10.5000996  67.3663746  52.0419858  10.2847480  67.2296115  52.7837408
  13.0583388  63.8746269  37.1694089  13.1530243  64.6135563  37.6233715
  12.4342232  63.4463745  37.6028654  12.9792418  63.9207590  37.3002237
  11.3135862  67.0532482  47.8184370  11.8874724  66.4159726  47.9732934
  11.2350666  67.0536564  46.9494028  11.3869097  66.9597593  47.7130781
  13.3106410  65.7195009  30.4031041  13.2286572  65.7897196  31.2686028
  13.9486130  66.2824753  30.2114782  13.3926247  65.8133980  30.5020991
   6.6699581  65.4855747  39.8705568   6.4118825  64.6527482  39.8436867
   6.7248064  65.7113360  39.0298068   6.6399359  65.3953518  39.7425704
  11.7500631  57.5884198  39.9709660  11.0456958  57.0993383  40.1293580
  11.7985605  57.6006672  39.0998105  11.6530682  57.5173845  39.8649000
   5.6434293  63.0393509  40.3570462   5.0683884  63.1985678  40.9934423
   5.2669969  62.4028918  39.8938913   5.5037105  62.9691322  40.3825021
   9.3107582  61.5116859  45.2162841   8.9222014  61.0871076  44.5615032
   8.6462280  61.7599008  45.7239868   9.1554509  61.4855580  45.1950709
  18.9530851  61.2691863  37.9910671  18.6967416  60.4571805  37.8008554
  19.7960165  61.2769430  37.7640858  19.0396876  61.1503861  37.9295488
  13.1333943  55.2091487  42.7286825  13.5144455  54.5269658  43.1154699
  12.3297227  54.9201089  42.5462490  13.0710405  55.0658536  42.7590881
  10.4146520  65.7415463  33.4139648  11.2287159  66.0330356  33.3022419
  10.3505661  65.0875326  32.8397941  10.5249259  65.6880658  33.3128485
  16.6356010  68.4241459  47.8269224  16.3994647  67.5929524  47.7081284
  17.2799239  68.3727066  48.4124068  16.6950681  68.2939147  47.8955117
   6.2854428  69.2136981  38.5411960   6.9228375  68.9748728  39.0863753
   6.7109500  69.4174140  37.8065121   6.4430594  69.2087991  38.5129117
   6.9257243  64.4339270  32.8786849   7.3102396  64.2146977  33.6303394
   6.6768863  65.2602216  33.0087926   6.9459316  64.5237417  33.0087926
   7.0925783  57.7145686  52.5949434   6.7779225  58.4845248  52.3318996
   6.7715716  57.1515942  52.0101660   6.9984703  57.7455954  52.4690783
  17.6592431  68.2085908  43.8897518  17.3538248  68.9413965  44.2510834
  16.9398646  67.8023838  43.6090304  17.5079773  68.2567641  43.9010655
   8.6675900  69.6909403  40.2205746   8.7414908  69.5284575  41.0747596
   9.4845406  69.8799593  39.9766228   8.7992259  69.6946146  40.3103772
   2.4281657  70.0367266  37.2500190   1.6019774  70.2829003  37.1234468
   2.4893648  69.9579347  38.1162248   2.3155824  70.0612215  37.3589134
   4.6457680  56.1036207  38.2095630   3.7780106  56.1758807  38.2753239
   4.9332885  56.9058286  38.3983605   4.5597429  56.2330354  38.2470396
  13.7690569  56.2514066  46.5406952  14.5144161  56.0623877  46.1270377
  13.3527874  56.7772304  45.9820808  13.8175543  56.3016212  46.3971525
   7.2080486  72.6544146  34.9519220   7.4978784  72.2633128  34.2278446
   7.9383967  72.8360851  35.3924495   7.3587370  72.6237960  34.9102027
  21.1452840  63.6223295  41.4912457  21.6960762  62.9891364  41.7309549
  21.1296955  64.1538688  42.1827961  21.2238036  63.6072243  41.6291315
   7.7975231  67.4561892  46.0372350   7.2986925  68.1677660  46.1157239
   8.6075455  67.7762559  45.9990512   7.8431338  67.6088741  46.0428919
   4.0603349  66.7184845  40.2835071   3.7716597  66.0922316  40.8180798
   4.9286697  66.6605133  40.3499751   4.1463600  66.6172389  40.3726026
  14.8481246  61.8619629  40.6017053  14.5046012  61.1409964  40.9524303
  14.9474289  61.6533480  39.7595411  14.8123289  61.7243832  40.5288733
   4.2635622  68.3580096  36.2077436   5.0181590  68.7393135  36.4212899
   3.6706235  68.8091240  36.6624133   4.2872335  68.4808924  36.3060314
  15.3094275  68.3245333  36.1441041  15.8752308  68.9838543  36.0599584
  14.6622179  68.6695031  36.6157443  15.2973032  68.4727274  36.2013797
   6.7242289  60.3142937  51.3334648   5.9142065  60.6200716  51.2224491
   7.2016976  61.0348519  51.4487232   6.6745768  60.4657538  51.3341719
   5.5833849  69.5288658  41.5817551   5.0614602  69.6688949  42.2669416
   5.9707869  68.7699322  41.7719669   5.5637549  69.4374181  41.7118628
   2.5725033  59.5794466  35.6512506   2.2849828  59.2095737  34.9144453
   3.2595501  60.0489322  35.3896211   2.6313930  59.5941436  35.5027582
  11.7800853  71.2684117  35.5678120  11.5387529  70.5351978  35.1605185
  11.9602186  71.8170974  34.9144454  11.7708477  71.2406508  35.4108343
   7.0100174  66.5592677  36.9799042   6.8142957  67.1667411  36.3859345
   7.2334520  65.8660621  36.4990716   7.0134815  66.5470202  36.8215123
   5.4078704  63.4447415  37.0979911   6.1301356  63.6088573  36.6383717
   4.9286697  64.1657079  36.9919251   5.4442435  63.5745644  37.0145525
  13.3672212  59.7811213  42.4776596  12.5283312  59.8072492  42.2414859
  13.4376579  60.4281949  43.0581942  13.2540605  59.8807339  42.5285713
   3.0586321  65.8505487  46.2034051   3.5707418  66.1289740  45.5542810
   2.7722663  66.5894781  46.5696864   3.0921184  66.0007841  46.1623929
  11.8141490  56.6796590  37.2104212  12.5167843  56.4804339  36.7324170
  11.5485679  55.9072533  37.5173055  11.8788122  56.5359556  37.1849653
  17.2429736  64.9879200  39.7637838  17.1563710  65.1434626  40.6172616
  16.7880215  65.6317276  39.3897243  17.1632992  65.1054955  39.8344944
   6.5770046  57.9431876  46.2635092   6.3853243  57.9587010  47.1134516
   7.4268642  58.1395550  46.2401747   6.6745768  57.9746227  46.3858387
   0.9616959  60.4722857  44.2418909   0.8202451  59.6206798  44.3663417
   1.2457523  60.5151518  43.4181115   0.9824805  60.3522607  44.1386533
  11.1155552  62.3089947  38.3863397  10.8690266  62.2285698  39.2200186
  11.4440675  61.5243415  38.1925925  11.1276795  62.1816213  38.4810920
  15.0103600  69.0173307  42.1750178  14.8717960  69.7154352  42.6798921
  14.2303598  68.8621963  41.8186360  14.8746827  69.0973473  42.1976452
  13.3481686  65.3169682  48.4272560  13.3429724  64.4449498  48.4314986
  14.0542679  65.5157851  47.9542016  13.4526690  65.2173556  48.3579595
   7.0752579  65.0446666  47.7986380   7.2195955  65.6247874  47.1629490
   7.4228227  65.4222963  48.5036235   7.1480040  65.1867370  47.8085375
   9.2472496  64.2436834  45.5811512   8.4995810  64.4367849  45.1759790
   9.4014021  63.4182054  45.3435633   9.1594924  64.1501946  45.4856918
  16.5056973  68.3751560  32.9366678  16.1263782  67.5888698  32.9295967
  15.8423219  68.9238417  32.7938322  16.3515448  68.3396384  32.9147474
   9.4874273  58.1387385  46.4706915   9.9446887  58.8711359  46.5979708
   9.5630602  57.7153850  47.2294171   9.5665243  58.1844623  46.6007992
   1.7307264  58.3853205  47.5596359   1.1949454  57.7733563  47.8757126
   1.7925029  58.9601341  48.2130026   1.6602897  58.3800132  47.7031786
  13.9601599  51.3177260  40.3400758  14.0785167  51.7753723  39.6068061
  13.7863775  50.5122521  40.0536976  13.9520770  51.2671032  40.1901692
   9.3303881  71.9265079  36.7755504  10.0953773  71.6574723  36.4538168
   9.2281971  71.4415090  37.4925567   9.4285377  71.8154644  36.8335331
   7.3656651  60.1289489  43.3148739   6.5752726  59.9480949  43.6366075
   7.7617274  59.3516441  43.2979034   7.3073527  59.9876950  43.3601288
  11.8522542  68.9577263  28.7555453  12.6195527  69.0177388  28.3461305
  11.4053851  68.3857705  28.2711772  11.8995969  68.8813839  28.6233163
  12.7500337  67.7631919  41.0408185  12.0745339  67.5317151  41.5421572
  12.7592714  67.1553102  40.4150290  12.6518842  67.6390844  41.0224338
   9.8794481  62.6049748  47.7972238   9.8153623  63.4659704  47.6692375
  10.0191669  62.2881741  46.9967790   9.8909952  62.6849915  47.6600451
  14.7517072  70.6197051  33.2718363  14.8336909  71.4264038  32.9479814
  15.2366814  70.6393011  33.9959137  14.8354230  70.7417714  33.3305262
   8.5613575  65.2981887  41.9388441   8.1375824  65.4986386  41.2027460
   8.3858431  64.4510735  42.0512741   8.4724456  65.2030669  41.8462131
   3.8496020  65.7933939  37.3716414   4.0060639  65.7280742  38.2272406
   4.1896613  66.5682491  37.1595093   3.9229255  65.8983137  37.4671008
  10.3875165  65.1691822  36.2409777  10.9290710  64.6662203  36.7048398
  10.7021724  65.1157017  35.4299262  10.5139562  65.0871243  36.1893589
  14.2592272  69.3794470  53.3536689  15.0727138  69.1079619  53.5141822
  14.0987239  69.0802010  52.5496885  14.3562221  69.2949396  53.2582095
   8.5561615  70.5609174  33.5249805   8.6254435  69.7023712  33.6642805
   9.3350070  70.7781055  33.1968830   8.6814465  70.4662038  33.4966962
  11.5364434  60.0628127  46.2932077  11.7506404  59.4239041  45.7395431
  10.9198333  60.5073951  45.8639939  11.4769764  60.0338271  46.1482509
  12.9469102  72.9846875  37.7386298  12.5548894  72.6813590  37.0209165
  13.1022174  73.8215965  37.5491252  12.9122692  73.0630712  37.6042795
  13.7003522  61.6717192  47.2315385  12.8880204  61.3643082  47.3128557
  14.1593457  61.1916192  47.7958097  13.6483907  61.5553684  47.3269979
  13.1108777  69.5496864  37.6792329  12.7523432  69.7211507  38.4556361
  12.6247488  70.0110070  37.1220327  12.9867474  69.6435835  37.7117598
  10.9279163  53.1728063  41.2819420  10.0572721  53.1466784  41.2352730
  11.1819504  53.0005255  40.4645266  10.8372723  53.1438206  41.1539557
   7.8997142  65.2296029  30.2192563   8.1889667  66.0060912  30.4936138
   7.9868941  64.7184761  30.9207063   7.9551399  65.2687948  30.3635061
  10.7957030  63.0777263  52.0144087  11.2656661  63.7019380  52.4011961
  10.8418910  62.4094239  52.5737302  10.8724906  63.0711944  52.1544158
   7.9528303  55.1834291  42.7392891   7.4366792  54.4914482  42.8644470
   7.3922232  55.8505068  42.6855489   7.7934817  55.1797549  42.7498957
  10.0220537  55.7227251  44.5685743   9.6352290  55.7476282  45.3499273
   9.5353474  55.1568930  44.1160260   9.8933046  55.6423002  44.6173647
  14.2713516  70.4400760  48.6259530  14.9093237  69.9460956  48.2921986
  13.6287608  70.3678160  48.0411757  14.2707743  70.3559768  48.4901885
  15.9970516  62.2889906  43.1925445  15.5698124  62.2016254  42.4373545
  15.3596569  62.3967681  43.7780289  15.8400124  62.2922566  43.1670887
   9.6877679  52.6094236  46.8596003  10.3170797  53.1454537  46.5817074
   9.8563541  52.5171595  47.7109569   9.8055473  52.6755599  46.9444531
   9.4891594  57.3965431  49.1322415  10.3165023  57.1250580  49.1881029
   9.5099440  58.1926273  49.4886233   9.6144444  57.4745185  49.1937598
  14.3267773  71.1320568  45.2664887  15.1160151  70.7809633  45.3866968
  14.5011371  71.9456957  45.0041520  14.4688055  71.2006425  45.2452755
   4.0661083  64.5429294  42.3192675   3.2249090  64.4433168  42.5271569
   4.2751091  65.3124774  42.6706996   3.9725776  64.6421337  42.4019990
   1.5436650  62.1648831  40.1477426   1.1493348  62.2391843  39.3727536
   0.9876767  62.5506777  40.6985788   1.4039463  62.2330606  40.1145086
  13.1801597  55.1430125  39.8281305  13.3851190  55.0752433  40.6738302
  12.8528021  55.9488946  39.7602482  13.1616845  55.2516065  39.9440960
   7.8777748  62.4710693  41.5690273   7.5740886  61.9166681  42.1700681
   7.1757169  62.6502903  41.0818307   7.7293958  62.4155475  41.5859979
   6.9343845  59.7811213  36.1334975   7.2103580  59.0630125  35.7212542
   7.5342515  60.3796133  35.9256081   7.0637110  59.7631584  36.0415736
   5.9396099  69.6860414  46.2762371   5.8316454  69.6962476  47.1424429
   6.1491881  70.5115194  46.0867324   5.9546210  69.8101489  46.3766462
  16.4335285  55.6961889  39.3084070  15.8209598  56.1832291  39.6937802
  16.5299460  55.0205380  39.8521722  16.3573182  55.6680198  39.4462929
  10.4354366  57.4524730  34.4081570  10.8898112  57.6235291  35.1329414
  10.9094412  56.8392841  34.0079345  10.5722686  57.3875616  34.4555331
   3.9569891  66.9373056  43.7384308   3.3657824  67.5782554  43.7087323
   4.7190915  67.3610674  43.7115608   3.9818152  67.0948895  43.7299455
   4.3530514  58.0975054  44.4052326   4.8131996  58.1713983  45.1427450
   4.3986621  58.8956308  44.0552147   4.4281069  58.2269201  44.4625082
   6.0013864  58.7641749  48.9724353   5.6099429  58.1175096  49.4080131
   6.1699726  59.3553184  49.5918608   5.9684774  58.7556017  49.1287059
  20.0760313  66.7678826  44.7361587  20.1343436  67.2165475  45.4821563
  19.4426780  67.1777639  44.2991667  19.9911608  66.8952561  44.7814135
  13.7159407  72.3882368  41.1716333  13.5179096  72.8773182  40.4772544
  13.0947119  72.5923609  41.7500466  13.5946972  72.4898906  41.1539556
   7.7767386  64.1567265  35.5126577   8.5209431  64.5441541  35.7509527
   7.9228082  63.3124690  35.6767065   7.9077971  64.0897737  35.5720547
   9.6946961  55.9517524  40.5458438   8.8483006  56.1240331  40.4199788
   9.6918094  55.1466867  40.8824267   9.5694111  55.8578553  40.5769565
  10.7645262  59.7292738  41.4120496  10.2905216  59.2034500  41.9225807
  11.1363397  59.1822211  40.8435358  10.7495151  59.5708735  41.4035644
   1.1418292  61.7264245  46.7804042   2.0043905  61.6259954  46.6941372
   0.8110075  61.1458954  46.2189614   1.2203488  61.6255871  46.6849448
  17.0281992  64.7895114  42.8227277  16.7880215  63.9501529  42.8269703
  17.5073999  64.8695280  43.5468050  17.0634176  64.6776513  42.9302079
  12.6928761  60.6229293  34.4746250  12.1651780  60.7058037  33.7851959
  13.1524469  61.3647164  34.4710895  12.6830612  60.7449955  34.3720945
  19.0287179  61.5696571  40.7756536  18.7896949  61.5292405  39.9377321
  19.1921081  62.4167723  40.9022257  19.0177483  61.6888656  40.6710018
  15.6333209  65.9546520  46.7061581  16.3567408  65.5019047  46.5272601
  15.3683172  66.2351186  45.9233909  15.7014483  65.9297489  46.5640296
   4.5020078  60.5506694  43.4414460   3.8773148  60.5625086  42.8340413
   4.1665673  61.0266869  44.0905700   4.3605570  60.6225211  43.4471029
   4.6861826  58.8931812  29.4987145   4.3374631  59.5451537  29.9618695
   4.2058272  58.8788925  28.7711017   4.5632070  58.9874866  29.4598237
   1.2145753  68.6107154  44.8818225   0.6845678  67.9199593  44.9313199
   1.4870847  68.6017339  44.0530933   1.1770476  68.5074286  44.7665641
  12.2465844  69.1932856  33.6055907  12.9700043  69.6590969  33.4620480
  11.8066435  69.2606466  32.8553504  12.2881536  69.2716693  33.4740689
  11.4151999  66.0530398  44.8556596  10.8008992  65.5088449  45.1505231
  11.9319284  65.5394635  44.3762412  11.4007661  65.8966807  44.8280825
  10.6548296  67.1234668  42.5900895  10.2275904  66.4984387  42.1566330
  10.6473240  66.8409590  43.4159902  10.5907437  66.9887449  42.6480722
   3.7710823  62.1599841  45.6589329   3.9304310  61.4043166  46.0641051
   3.5903717  62.7090781  46.3130066   3.7676182  62.1293655  45.8152035
  11.7131126  54.3261077  46.2140118  11.2171687  54.5224751  45.5231685
  12.4700188  54.7253745  46.0428920  11.7517951  54.4138811  46.0860255
   8.9834006  58.0003423  42.8043429   9.0076493  57.4663535  42.1156209
   9.2345479  57.4920732  43.4669019   9.0243924  57.8464327  42.8008073
   5.2635328  56.7274241  42.1849173   5.3033700  57.2283448  42.8983881
   4.4384993  56.8184635  41.9155096   5.1474854  56.8156058  42.2499711
   7.4464941  66.2934981  50.2869468   6.5960571  66.4306695  50.4227113
   7.6093069  65.5598759  50.7317169   7.3448804  66.2049082  50.3725067
   6.6849691  63.2434751  44.4823072   5.8541621  63.4108569  44.2758320
   6.6301209  62.8670702  45.2671957   6.5539106  63.2124482  44.5671600
   4.4933475  56.7343644  50.1179483   5.1186178  56.1905777  50.3908915
   4.0383955  56.2538562  49.5487273   4.5181735  56.5833125  50.0741077
   5.0585735  61.5190343  35.0113190   5.1988696  62.0162807  35.7141831
   5.5568268  60.8176637  35.1527404   5.1526816  61.4892321  35.1364769
   5.0885958  62.3857454  32.3405767   5.7231037  62.9817879  32.2755228
   5.1711568  62.0860911  33.1551637   5.1942509  62.4298362  32.4508853
  18.0668523  64.9172931  45.2092131  18.6586364  65.5570182  45.2410329
  18.5027518  64.2195968  45.4984198  18.2186955  64.9091281  45.2572963
   6.6664940  58.3171429  32.3151209   6.9880781  57.8374512  31.6610471
   6.9291884  59.1271075  32.1242020   6.7530966  58.3661327  32.1906701
   9.8961913  69.3390303  45.8350025   9.3887004  69.8926150  46.2790655
   9.5988559  69.3998593  45.0168799   9.7766798  69.4296615  45.7798481
  12.0624095  57.7043623  44.6774688  12.4879167  57.2516149  44.0658214
  11.4481089  57.1503694  44.9539475  12.0352741  57.5557599  44.6279713
   1.5938945  64.5825294  35.6095313   2.1031175  65.1789802  35.9906618
   2.0673218  64.3151268  34.9271732   1.7382321  64.6311110  35.5649835
  12.5069694  73.2553561  33.7653968  11.7899003  73.0814423  33.3001206
  13.1576431  73.0206133  33.2329454  12.4971544  73.1949354  33.6183186
  10.5018318  54.1758723  38.0865265   9.8586636  54.0256369  38.6550403
  10.1617725  53.9301068  37.3214369  10.3563396  54.1170845  38.0568280
  15.0917665  62.1318150  37.5095273  14.4208855  62.6747852  37.3808339
  15.7857415  62.6013005  37.2676968  15.0946532  62.2816421  37.4550801
  15.2545792  58.5874033  40.4185647  15.6073402  58.1603756  41.0931445
  14.3960594  58.5024877  40.5486723  15.1795237  58.5118774  40.5380657
   3.9529477  61.2181553  38.4768493   3.2341466  61.6345685  38.7441357
   4.3241839  61.7835792  37.9260131   3.9021409  61.3630834  38.4351300
  13.2529058  61.8509402  44.3670489  13.2326985  61.6692697  45.2205268
  13.3008259  62.7221420  44.3430072  13.2563699  61.9525940  44.4893784
  11.1975388  68.4396594  50.2918965  11.1571243  67.7946271  49.7064121
  12.0098706  68.3833211  50.6044377  11.3118541  68.3355561  50.2515915
  11.1548150  73.6505405  40.9467733  10.7564433  73.7607675  40.1788553
  10.5399369  73.8587471  41.5294293  11.0047039  73.6978973  40.9199032
   9.7276052  60.2579553  33.8141873   9.1340891  60.5796549  33.2626440
   9.7651329  59.4120648  33.6062979   9.6450441  60.1803881  33.7024644
  16.6869852  53.7092445  41.3469959  16.1800717  53.0021585  41.2791137
  17.4837286  53.3785634  41.4771036  16.7297091  53.5565596  41.3568954
  12.6033868  60.2159057  37.2443623  12.3747561  60.2391759  36.4021981
  12.8631944  59.3916524  37.3638633  12.6080056  60.0975137  37.1368820
   6.8853097  62.0693530  46.8468723   6.3732000  61.4614713  47.2053754
   6.7132593  62.7850123  47.3142699   6.7842734  62.0856830  46.9684947
   1.7318811  60.5131106  49.4971085   1.5621402  61.1732480  48.9519291
   1.2884761  60.7237667  50.2183574   1.6418145  60.6417088  49.5232714
   5.6578631  58.7535604  38.5397818   6.1335997  59.1152683  37.9048000
   5.1567230  59.4092071  38.8197961   5.6543990  58.9029792  38.4874559
  18.8889992  68.2257372  34.3310823  19.2723598  68.9748728  34.5608920
  18.0934106  68.4723191  34.0722813  18.8283774  68.3727066  34.3268397
  10.7622167  59.9917775  49.2870979  11.3193597  59.7631585  48.6549444
  10.4383232  60.7523441  49.0106191  10.7968577  60.0701612  49.1527476
   8.4805284  63.0785428  50.2522986   9.2316611  63.3937105  50.5662540
   8.6727861  62.8764599  49.4256907   8.6196698  63.0952810  50.1766381
   7.7005284  60.8976803  31.9071202   8.0804249  60.9156433  31.1222317
   6.9597880  61.3430792  31.7862050   7.6474122  60.9658578  31.7734771
  15.3290574  59.2058995  37.4946781  15.3284801  59.0507651  38.3531057
  15.1246754  60.0521982  37.4388167  15.2990352  59.3079615  37.6134721
  13.0531426  63.8856496  41.1482988  13.5485092  63.1679491  41.1087008
  12.2431202  63.5827294  41.0337475  13.0075320  63.7354143  41.1256714
   8.4990038  67.7354310  33.2979992   7.6901361  67.4120983  33.2513302
   9.0064947  67.0287532  33.2308241   8.4539705  67.5835626  33.2810287
  15.1183245  66.6360184  43.8360117  15.5438317  66.1134606  43.2830542
  14.7540165  67.2341021  43.3148740  15.1269848  66.6470411  43.6769126
  11.7061845  70.3494448  40.1661274  12.1773023  71.0634711  40.3351259
  12.0422023  69.7493198  40.7021144  11.8256960  70.3665912  40.2693650
  13.7938829  71.9595762  52.3453346  13.9035795  71.1704322  52.7010093
  14.1229726  71.8701698  51.5427684  13.8591235  71.8301614  52.2795737
   8.6231340  55.1221919  47.1219369   8.7559245  54.3252912  47.4500345
   9.0076492  55.6488322  47.7017645   8.6987668  55.0821835  47.2562872
  12.3435791  70.1412382  46.9288967  11.7956737  69.5170266  46.6609032
  12.8048820  70.3306654  46.2133046  12.3303000  70.0771433  46.7839398
  11.6963695  52.0452245  43.7200462  10.8909659  51.9349975  44.0368301
  11.5670430  52.1464701  42.8630328  11.5583828  52.0435915  43.6408503
  15.1529655  58.2097737  44.3140159  14.5692644  58.7106943  43.9017727
  15.4733949  57.7027293  43.6804482  15.1142831  58.2089572  44.1598666
   7.6924455  57.1238332  34.5898834   8.5140149  57.2936644  34.3480529
   7.2294105  57.2785593  33.8665132   7.7455617  57.1720065  34.4470478
   6.2819786  55.1181094  45.3697263   6.8264199  54.7772221  45.9601604
   6.3356722  55.9766555  45.5118547   6.3708906  55.1936353  45.4779136
   2.0950345  68.8797510  42.2436071   2.6995203  68.8393344  41.6149891
   1.8877658  69.7268662  42.2740126   2.1539242  68.9985512  42.1552187
  11.9094117  71.1463455  43.4598308  12.7292491  71.0026421  43.7214603
  11.6288195  71.7709654  44.0014746  11.9890861  71.2173807  43.5786247
  28.3807768  78.8028307  36.4241184  28.3501772  79.6572943  36.5959454
  28.9789116  78.5023599  36.9827328  28.4644926  78.8844803  36.5315987
  20.1356376  77.3690627  36.0663223  20.8336540  77.5478754  36.5584687
  20.4508708  76.8460966  35.4433613  20.2851713  77.3184399  36.0465234
  18.3083239  72.7383023  40.1484498  17.9786569  73.1894167  39.4788197
  17.6328241  72.6599187  40.6957504  18.1593676  72.7934159  40.1307721
  16.5139193  70.7995312  35.6307446  17.2685161  71.1673629  35.3924496
  16.3366728  71.1734866  36.3986625  16.5993672  70.9093500  35.7092334
  29.8074092  76.9489752  43.6754985  28.9702513  77.0191939  43.9102579
  29.7762323  76.9514247  42.8029287  29.6792375  76.9599979  43.5814533
  14.8696258  73.2065631  32.3285559  14.6871831  73.4237512  31.5026551
  15.7321871  73.3204643  32.3844173  14.9700848  73.2555529  32.2140046
  20.5495977  70.2092041  35.3634583  21.2782138  70.0307996  34.9172739
  20.6390870  71.0510121  35.5741761  20.6702639  70.3075920  35.3288100
  27.4881932  72.0132534  42.2598707  28.1307840  72.0830639  42.8460623
  27.7404953  71.3461757  41.7578249  27.6204064  71.9258883  42.2725987
  15.2599145  75.2233097  46.8723281  14.5670941  74.7530077  47.1184013
  15.8759472  74.9971402  47.4464989  15.2483674  75.1200229  46.9932434
  22.7233214  73.1069505  39.9709660  22.0189541  72.6178691  40.1293580
  22.7718189  73.1191980  39.0998105  22.6263266  73.0359153  39.8649000
  20.2840165  77.0302167  45.2162841  19.8954598  76.6056384  44.5615032
  19.6194863  77.2784316  45.7239868  20.1287093  77.0040888  45.1950709
  29.9263434  76.7877171  37.9910671  29.6699999  75.9757113  37.8008554
  30.7692748  76.7954738  37.7640858  30.0129460  76.6689169  37.9295488
  24.1066527  70.7276795  42.7286825  24.4877038  70.0454966  43.1154699
  23.3029811  70.4386397  42.5462490  24.0442988  70.5843844  42.7590881
  18.0658367  73.2330994  52.5949434  17.7511808  74.0030556  52.3318996
  17.7448300  72.6701250  52.0101660  17.9717286  73.2641262  52.4690783
  34.3326806  80.3664217  43.2165862  34.2651307  80.3860176  42.3468449
  34.3182469  81.2094544  43.4421533  34.3205563  80.4937951  43.1218339
  15.6190264  71.6221515  38.2095630  14.7512689  71.6944114  38.2753239
  15.9065468  72.4243594  38.3983605  15.5330012  71.7515662  38.2470396
  24.7423153  71.7699374  46.5406952  25.4876745  71.5809185  46.1270377
  24.3260457  72.2957612  45.9820808  24.7908127  71.8201520  46.3971525
  32.1185424  79.1408603  41.4912457  32.6693345  78.5076672  41.7309549
  32.1029539  79.6723996  42.1827961  32.1970620  79.1257551  41.6291315
  25.8213830  77.3804937  40.6017053  25.4778596  76.6595272  40.9524303
  25.9206872  77.1718788  39.7595411  25.7855873  77.2429140  40.5288733
  17.6974872  75.8328245  51.3334648  16.8874648  76.1386024  51.2224491
  18.1749559  76.5533827  51.4487232  17.6478351  75.9842846  51.3341719
  24.3404795  75.2996521  42.4776596  23.5015896  75.3257800  42.2414859
  24.4109163  75.9467257  43.0581942  24.2273189  75.3992647  42.5285713
  22.7874074  72.1981898  37.2104212  23.4900426  71.9989647  36.7324170
  22.5218262  71.4257841  37.5173055  22.8520706  72.0544864  37.1849653
  17.5502630  73.4617184  46.2635092  17.3585827  73.4772318  47.1134516
  18.4001226  73.6580858  46.2401747  17.6478352  73.4931535  46.3858387
  22.0888135  77.8275255  38.3863397  21.8422849  77.7471006  39.2200186
  22.4173258  77.0428723  38.1925925  22.1009379  77.7001520  38.4810920
  20.4606857  73.6572693  46.4706915  20.9179471  74.3896667  46.5979708
  20.5363186  73.2339158  47.2294171  20.5397827  73.7029931  46.6007992
  12.7039848  73.9038513  47.5596359  12.1682038  73.2918871  47.8757126
  12.7657613  74.4786649  48.2130026  12.6335481  73.8985440  47.7031786
  24.9334183  66.8362568  40.3400758  25.0517751  67.2939031  39.6068061
  24.7596358  66.0307829  40.0536976  24.9253354  66.7856340  40.1901692
  18.3389235  75.6474797  43.3148739  17.5485310  75.4666257  43.6366075
  18.7349858  74.8701749  43.2979034  18.2806111  75.5062258  43.3601288
  22.5097018  75.5813435  46.2932077  22.7238987  74.9424349  45.7395431
  21.8930917  76.0259259  45.8639939  22.4502347  75.5523578  46.1482509
  24.6736106  77.1902500  47.2315385  23.8612788  76.8828390  47.3128557
  25.1326040  76.7101500  47.7958097  24.6216491  77.0738992  47.3269979
  21.9011747  68.6913370  41.2819420  21.0305304  68.6652092  41.2352730
  22.1552088  68.5190563  40.4645266  21.8105307  68.6623514  41.1539557
  18.9260887  70.7019599  42.7392891  18.4099376  70.0099790  42.8644470
  18.3654816  71.3690376  42.6855489  18.7667400  70.6982856  42.7498957
  20.9953120  71.2412559  44.5685743  20.6084874  71.2661590  45.3499273
  20.5086058  70.6754238  44.1160260  20.8665629  71.1608310  44.6173647
  26.9703100  77.8075214  43.1925445  26.5430708  77.7201562  42.4373545
  26.3329153  77.9152989  43.7780289  26.8132707  77.8107874  43.1670887
  20.6610262  68.1279544  46.8596003  21.2903380  68.6639844  46.5817074
  20.8296125  68.0356903  47.7109569  20.7788057  68.1940907  46.9444531
  20.4624177  72.9150739  49.1322415  21.2897606  72.6435888  49.1881029
  20.4832023  73.7111581  49.4886233  20.5877027  72.9930493  49.1937598
  24.1534181  70.6615433  39.8281305  24.3583774  70.5937741  40.6738302
  23.8260605  71.4674254  39.7602482  24.1349429  70.7701373  39.9440960
  17.9076429  75.2996521  36.1334975  18.1836163  74.5815433  35.7212542
  18.5075098  75.8981441  35.9256081  18.0369694  75.2816892  36.0415736
  27.4067868  71.2147197  39.3084070  26.7942182  71.7017599  39.6937802
  27.5032043  70.5390688  39.8521722  27.3305766  71.1865506  39.4462929
  21.4086949  72.9710038  34.4081570  21.8630696  73.1420599  35.1329414
  21.8826995  72.3578149  34.0079345  21.5455270  72.9060923  34.4555331
  15.3263098  73.6160362  44.4052326  15.7864579  73.6899291  45.1427450
  15.3719204  74.4141616  44.0552147  15.4013653  73.7454509  44.4625082
  16.9746447  74.2827057  48.9724353  16.5832012  73.6360404  49.4080131
  17.1432310  74.8738492  49.5918608  16.9417358  74.2741325  49.1287059
  20.6679545  71.4702832  40.5458438  19.8215590  71.6425639  40.4199788
  20.6650677  70.6652175  40.8824267  20.5426695  71.3763860  40.5769565
  21.7377845  75.2478046  41.4120496  21.2637799  74.7219808  41.9225807
  22.1095981  74.7007519  40.8435358  21.7227734  75.0894043  41.4035644
  23.6661345  76.1414600  34.4746250  23.1384364  76.2243344  33.7851959
  24.1257053  76.8832472  34.4710895  23.6563195  76.2635263  34.3720945
  30.0019763  77.0881879  40.7756536  29.7629533  77.0477713  39.9377321
  30.1653664  77.9353031  40.9022257  29.9910066  77.2073964  40.6710018
  15.6594410  74.4117120  29.4987145  15.3107214  75.0636845  29.9618695
  15.1790856  74.3974233  28.7711017  15.5364654  74.5060174  29.4598237
  22.6863710  69.8446385  46.2140118  22.1904271  70.0410059  45.5231685
  23.4432772  70.2439053  46.0428920  22.7250534  69.9324119  46.0860255
  19.9566589  73.5188731  42.8043429  19.9809076  72.9848843  42.1156209
  20.2078063  73.0106040  43.4669019  19.9976508  73.3649635  42.8008073
  16.2367912  72.2459549  42.1849173  16.2766283  72.7468756  42.8983881
  15.4117576  72.3369943  41.9155096  16.1207437  72.3341365  42.2499711
  15.4666058  72.2528952  50.1179483  16.0918762  71.7091085  50.3908915
  15.0116538  71.7723869  49.5487273  15.4914319  72.1018433  50.0741077
  17.6397524  73.8356737  32.3151209  17.9613365  73.3559819  31.6610471
  17.9024468  74.6456383  32.1242020  17.7263549  73.8846635  32.1906701
  23.0356679  73.2228931  44.6774688  23.4611751  72.7701457  44.0658214
  22.4213672  72.6689002  44.9539475  23.0085324  73.0742907  44.6279713
  21.4750902  69.6944031  38.0865265  20.8319220  69.5441677  38.6550403
  21.1350309  69.4486376  37.3214369  21.3295979  69.6356153  38.0568280
  26.0650248  77.6503458  37.5095273  25.3941438  78.1933160  37.3808339
  26.7589999  78.1198313  37.2676968  26.0679116  77.8001729  37.4550801
  26.2278376  74.1059341  40.4185647  26.5805986  73.6789064  41.0931445
  25.3693177  74.0210185  40.5486723  26.1527820  74.0304082  40.5380657
  24.2261642  77.3694710  44.3670489  24.2059569  77.1878005  45.2205268
  24.2740842  78.2406728  44.3430072  24.2296283  77.4711248  44.4893784
  20.7008635  75.7764861  33.8141873  20.1073474  76.0981857  33.2626440
  20.7383913  74.9305956  33.6062979  20.6183024  75.6989189  33.7024644
  27.6602436  69.2277753  41.3469959  27.1533301  68.5206893  41.2791137
  28.4569870  68.8970942  41.4771036  27.7029675  69.0750904  41.3568954
  23.5766452  75.7344365  37.2443623  23.3480145  75.7577067  36.4021981
  23.8364528  74.9101832  37.3638633  23.5812640  75.6160445  37.1368820
  16.6311214  74.2720912  38.5397818  17.1068580  74.6337991  37.9048000
  16.1299814  74.9277379  38.8197961  16.6276573  74.4215100  38.4874559
  21.7354750  75.5103083  49.2870979  22.2926181  75.2816892  48.6549444
  21.4115816  76.2708749  49.0106191  21.7701161  75.5886920  49.1527476
  26.3023158  74.7244303  37.4946781  26.3017384  74.5692959  38.3531057
  26.0979338  75.5707290  37.4388167  26.2722936  74.8264923  37.6134721
  19.5963923  70.6407227  47.1219369  19.7291829  69.8438220  47.4500345
  19.9809076  71.1673630  47.7017645  19.6720252  70.6007143  47.2562872
  22.6696278  67.5637553  43.7200462  21.8642242  67.4535282  44.0368301
  22.5403014  67.6650009  42.8630328  22.5316411  67.5621223  43.6408503
  26.1262239  73.7283045  44.3140159  25.5425228  74.2292251  43.9017727
  26.4466533  73.2212601  43.6804482  26.0875414  73.7274880  44.1598666
  18.6657038  72.6423640  34.5898834  19.4872732  72.8121952  34.3480529
  18.2026689  72.7970901  33.8665132  18.7188200  72.6905373  34.4470478
  17.2552370  70.6366402  45.3697263  17.7996783  70.2957529  45.9601604
  17.3089306  71.4951863  45.5118547  17.3441489  70.7121661  45.4779136
  35.9066766  82.3547876  40.3400758  36.0250334  82.8124339  39.6068061
  35.7328942  81.5493137  40.0536976  35.8985937  82.3041648  40.1901692
   6.1293424  24.7035822  23.3581231   6.0987429  25.5580459  23.5299501
   6.7274773  24.4031115  23.9167375   6.2130582  24.7852319  23.4656034
   2.6386826  30.0597999  37.7194618   3.3453593  29.5650029  37.8481552
   2.8274761  30.5007080  36.9897276   2.7714731  30.0516349  37.6303663
   2.1744930  25.8503517  30.7565813   2.7200890  26.5288604  30.8159783
   2.1161807  25.7090978  29.8967395   2.2460845  25.9295519  30.6377874
   3.9509999  27.2788124  21.6299541   3.8349525  28.0295810  22.0591679
   4.7465886  27.0212077  21.8795628   4.0514588  27.3522971  21.7303633
   1.6739305  28.0095768  19.9413831   1.5890600  28.8656735  20.0863400
   2.1623688  27.7340092  20.6095990   1.7328202  28.0953090  20.0615912
   3.2645304  14.6276062  25.3274155   2.9498745  15.3179540  25.7594578
   2.7472246  14.5720844  24.6259656   3.1409774  14.7210950  25.2871105
   2.6057738  24.6280563  21.4411566   2.0769209  24.8440196  22.1008872
   3.1282758  25.3216701  21.3612535   2.6046191  24.7623699  21.5267165
   8.0605791  30.2026867  26.8144610   7.2303494  30.4137511  26.9778027
   8.0115043  29.3763922  26.5386894   7.9312526  30.1116473  26.7981976
   7.5559749  22.8497268  30.6095032   6.7188170  22.9199455  30.8442626
   7.5247980  22.8521762  29.7369334   7.4278031  22.8607495  30.5154580
   2.2789935  27.0452944  26.2006923   3.0347450  27.4784459  26.2395832
   2.3852259  26.3957714  26.7741559   2.4060105  27.0130428  26.2904949
   5.3170106  30.8726221  26.9509326   4.8805338  30.8762964  27.7068298
   4.9833021  31.5531720  26.5188904   5.2032726  30.9738677  26.9990159
   5.2367589  17.9140049  29.1938754   5.8793497  17.9838154  29.7800669
   5.4890609  17.2469272  28.6918296   5.3689721  17.8266398  29.2066033
   8.4514452  27.5907141  25.8428964   9.1130886  27.0297810  25.7424872
   7.8105864  27.0959172  26.1681655   8.4543320  27.4343550  25.8761304
   4.7379283  28.6072524  25.5840952   4.9734872  28.7517723  24.7567803
   4.8868846  29.3714932  25.9772466   4.7945086  28.7411578  25.5204556
   6.5669740  27.4474190  23.4210556   6.8977957  27.9801830  22.8150651
   7.1402828  27.5013077  24.0772507   6.7003419  27.5343758  23.4288338
   1.7801629  25.2939092  24.1034136   1.8748483  26.0328386  24.5573762
   1.1560472  24.8656568  24.5368701   1.7010659  25.3400413  24.2342284
   2.0324650  27.1387832  17.3371088   1.9504812  27.2090019  18.2026075
   2.6704370  27.7017576  17.1454829   2.1144487  27.2326803  17.4361038
   7.6749091  22.6884686  24.9250718   7.4185656  21.8764628  24.7348601
   8.5178405  22.6962254  24.6980905   7.7615116  22.5696684  24.8635535
   1.8552183  16.6284311  29.6626872   2.2362695  15.9462482  30.0494746
   1.0515468  16.3393913  29.4802536   1.7928645  16.4851359  29.6930928
   5.3574250  29.8434283  34.7609270   5.1212888  29.0122347  34.6421331
   6.0017479  29.7919890  35.3464115   5.4168921  29.7131970  34.8295164
   6.3810671  29.6278731  30.8237565   6.0756488  30.3606788  31.1850880
   5.6616887  29.2216661  30.5430351   6.2298013  29.6760464  30.8350702
  12.0812463  26.2671732  30.1505909  12.0136963  26.2867691  29.2808496
  12.0668126  27.1102059  30.3761580  12.0691220  26.3945467  30.0558386
   2.4908810  17.6706890  33.4746999   3.2362402  17.4816700  33.0610424
   2.0746114  18.1965128  32.9160855   2.5393784  17.7209035  33.3311572
   9.8671080  25.0416118  28.4252503  10.4179002  24.4084187  28.6649596
   9.8515196  25.5731511  29.1168008   9.9456277  25.0265066  28.5631362
   3.5699487  23.2812452  27.5357100   3.2264253  22.5602787  27.8864349
   3.6692529  23.0726303  26.6935458   3.5341529  23.1436655  27.4628780
   4.0312516  29.7438156  23.0781088   4.5970548  30.4031366  22.9939631
   3.3840419  30.0887854  23.5497490   4.0191272  29.8920097  23.1353844
   2.0890452  21.2004037  29.4116643   1.2501553  21.2265315  29.1754906
   2.1594819  21.8474772  29.9921989   1.9758846  21.3000162  29.4625759
   5.9647976  26.4072023  26.6977884   5.8781950  26.5627449  27.5512663
   5.5098456  27.0510099  26.3237289   5.8851233  26.5247778  26.7684991
   3.7321841  30.4366130  29.1090225   3.5936200  31.1347176  29.6138967
   2.9521839  30.2814786  28.7526407   3.5965068  30.5166296  29.1316499
   2.0699926  26.7362505  35.3612607   2.0647964  25.8642322  35.3655033
   2.7760920  26.9350674  34.8882062   2.1744930  26.6366379  35.2919642
   5.2275214  29.7944384  19.8706724   4.8482022  29.0081522  19.8636014
   4.5641459  30.3431241  19.7278369   5.0733688  29.7589208  19.8487521
   2.6819840  12.7370083  27.2740805   2.8003408  13.1946547  26.5408108
   2.5082015  11.9315345  26.9877023   2.6739011  12.6863855  27.1241739
   1.4718578  29.1824742  27.9748232   0.7963580  28.9509974  28.4761619
   1.4810954  28.5745925  27.3490337   1.3737082  29.0583667  27.9564384
   3.4735312  32.0389875  20.2058410   3.5555150  32.8456861  19.8819861
   3.9585055  32.0585834  20.9299184   3.5572470  32.1610537  20.2645309
   2.9810513  30.7987293  40.2876736   3.7945378  30.5272442  40.4481869
   2.8205479  30.4994833  39.4836932   3.0780461  30.7142219  40.1922142
   1.6687343  34.4039698  24.6726345   1.2767134  34.1006414  23.9549211
   1.8240415  35.2408788  24.4831299   1.6340932  34.4823535  24.5382842
   2.4221763  23.0910015  34.1655431   1.6098444  22.7835906  34.2468604
   2.8811697  22.6109015  34.7298144   2.3702147  22.9746508  34.2610026
   1.8327017  30.9689687  24.6132376   1.4741672  31.1404330  25.3896408
   1.3465728  31.4302893  24.0560374   1.7085714  31.0628658  24.6457645
   2.9931757  31.8593583  35.5599577   3.6311477  31.3653779  35.2262033
   2.3505848  31.7870984  34.9751803   2.9925983  31.7752592  35.4241932
   4.7188757  23.7082729  30.1265492   4.2916365  23.6209078  29.3713592
   4.0814810  23.8160505  30.7120336   4.5618364  23.7115389  30.1010934
   3.0486013  32.5513391  32.2004933   3.8378391  32.2002456  32.3207015
   3.2229611  33.3649780  31.9381567   3.1906295  32.6199249  32.1792801
   1.9019837  16.5622948  26.7621352   2.1069431  16.4945256  27.6078349
   1.5746261  17.3681769  26.6942529   1.8835085  16.6708889  26.8781007
   5.1553525  17.1154712  26.2424117   4.5427839  17.6025115  26.6277849
   5.2517700  16.4398203  26.7861768   5.0791423  17.0873021  26.3802975
   8.7978553  28.1871649  31.6701633   8.8561677  28.6358298  32.4161610
   8.1645021  28.5970462  31.2331713   8.7129848  28.3145384  31.7154182
   2.4377648  33.8075191  28.1056380   2.2397336  34.2966006  27.4112591
   1.8165359  34.0116433  28.6840513   2.3165212  33.9091729  28.0879603
   5.7500233  26.2087937  29.7567324   5.5098455  25.3694352  29.7609750
   6.2292240  26.2888104  30.4808097   5.7852416  26.0969337  29.8642126
   1.4147002  22.0422116  21.4086297   0.8870020  22.1250860  20.7192006
   1.8742710  22.7839987  21.4050942   1.4048852  22.1642778  21.3060992
   7.7505420  22.9889394  27.7096583   7.5115190  22.9485228  26.8717367
   7.9139321  23.8360546  27.8362304   7.7395723  23.1081479  27.6050065
   4.3551450  27.3739343  33.6401628   5.0785649  26.9211870  33.4612648
   4.0901412  27.6544009  32.8573956   4.4232723  27.3490312  33.4980343
   0.9684084  30.6125679  20.5395954   1.6918283  31.0783792  20.3960527
   0.5284675  30.6799289  19.7893551   1.0099776  30.6909516  20.4080735
   6.7886764  26.3365754  32.1432178   7.3804604  26.9763005  32.1750376
   7.2245758  25.6388791  32.4324244   6.9405195  26.3284105  32.1913010
   1.2287934  34.6746384  20.6994015   0.5117244  34.5007247  20.2341252
   1.8794671  34.4398957  20.1669501   1.2189784  34.6142177  20.5523233
   3.8135905  23.5510973  24.4435320   3.1427095  24.0940675  24.3148386
   4.5075655  24.0205828  24.2017015   3.8164773  23.7009244  24.3890848
   3.9764033  20.0066856  27.3525693   4.3291643  19.5796579  28.0271492
   3.1178834  19.9217700  27.4826770   3.9013477  19.9311597  27.4720704
   1.9747298  23.2702225  31.3010536   1.9545226  23.0885520  32.1545314
   2.0226499  24.1414244  31.2770119   1.9781939  23.3718763  31.4233830
   5.4088093  15.1285268  28.2810006   4.9018957  14.4214408  28.2131183
   6.2055526  14.7978457  28.4111082   5.4515332  14.9758420  28.2909001
   1.3252109  21.6351881  24.1783670   1.0965802  21.6584582  23.3362028
   1.5850185  20.8109348  24.2978680   1.3298297  21.5167961  24.0708867
   7.6108233  29.6450195  21.2650870   7.9941838  30.3941551  21.4948967
   6.8152346  29.8916015  21.0062859   7.5502015  29.7919889  21.2608444
   4.0508815  20.6251818  24.4286828   4.0503041  20.4700474  25.2871104
   3.8464995  21.4714805  24.3728214   4.0208593  20.7272439  24.5474767
   1.7749667  25.3049320  28.0823035   2.2703332  24.5872315  28.0427055
   0.9649442  25.0020117  27.9677522   1.7293560  25.1546966  28.0596761
   3.8401486  28.0553007  30.7700164   4.2656557  27.5327429  30.2170589
   3.4758405  28.6533845  30.2488787   3.8488088  28.0663234  30.6109173
   2.5157070  33.3788585  39.2793393   2.6254035  32.5897145  39.6350140
   2.8447966  33.2894521  38.4767731   2.5809475  33.2494438  39.2135784
   1.0654031  31.5605206  33.8629014   0.5174977  30.9363089  33.5949079
   1.5267060  31.7499478  33.1473093   1.0521241  31.4964256  33.7179445
   3.8747896  19.6290560  31.2480206   3.2910885  20.1299767  30.8357773
   4.1952190  19.1220116  30.6144529   3.8361071  19.6282395  31.0938713
  17.1026008  40.2221130  23.3581231  17.0720012  41.0765767  23.5299501
  17.7007357  39.9216423  23.9167375  17.1863166  40.3037627  23.4656034
  10.3025693  39.3096781  28.1134162   9.4463588  39.4705279  28.1643278
  10.3493347  38.4388845  28.1339223  10.1824804  39.2047583  28.1240228
   4.6866833  48.8459499  23.8771393   3.9349732  48.4675037  23.6487438
   5.1352844  48.8777932  23.1290204   4.6416499  48.7945106  23.7328895
  13.6119409  45.5783307  37.7194618  14.3186177  45.0835337  37.8481552
  13.8007345  46.0192388  36.9897276  13.7447315  45.5701657  37.6303663
  10.1391792  49.2684868  19.3056940   9.8043161  49.9461790  18.8701162
  10.6518663  48.8790180  18.7173812  10.1657374  49.3109447  19.1543732
   9.6796084  51.2199137  25.2468052  10.0635463  51.7886036  24.7072827
   9.6155225  50.4948647  24.7673868   9.7269511  51.1974600  25.0961914
  13.1477514  41.3688825  30.7565813  13.6933474  42.0473912  30.8159783
  13.0894390  41.2276286  29.8967395  13.2193428  41.4480827  30.6377874
   6.2651589  48.8577891  26.1434166   6.3661952  48.0478245  26.4531293
   5.6693334  48.7634837  25.5133844   6.1924127  48.7242919  26.0960404
  14.9242583  42.7973432  21.6299541  14.8082108  43.5481118  22.0591679
  15.7198469  42.5397385  21.8795628  15.0247172  42.8708279  21.7303633
   6.1052328  53.7755480  27.5449022   6.7489784  54.2168644  27.9345180
   6.4308584  52.9708906  27.4579281   6.2484157  53.7220675  27.5894499
   1.7606721  37.0483908  28.6670807   1.1411752  36.4576555  28.4980822
   1.6590584  37.6395343  28.0335130   1.6544396  37.0487991  28.5475797
   6.8072908  46.7867455  22.9168883   7.1288749  47.3272662  22.3130192
   7.4545005  46.2164226  23.0491173   6.9498963  46.7826630  22.8475919
   8.8574616  38.7883450  23.0003270   9.5554781  38.9671577  23.4924733
   9.1726949  38.2653789  22.3773660   9.0069953  38.7377222  22.9805280
   1.4875854  40.5936190  30.9114376   1.3634550  41.1798635  31.5464195
   2.1394138  40.0996386  31.2126651   1.5649503  40.6074994  31.0500305
   9.0462552  45.1753895  22.9883062   9.4856187  44.5670995  23.4337834
   8.8967214  44.7961268  22.2168527   9.0884017  45.0292366  22.9402229
   6.5134195  43.7697907  30.1901887   7.1583197  43.2770350  29.8712836
   6.7535972  43.9122693  31.0167965   6.6444780  43.7175349  30.2651420
   9.0520286  46.6152813  29.8408780   9.3343529  45.8204218  29.6195536
   9.7806446  47.0933400  29.8613841   9.2009850  46.5687410  29.8111795
   7.0301480  34.1575847  27.0824545   6.7004810  34.6086990  26.4128244
   6.3546482  34.0792010  27.6297551   6.8811916  34.2126982  27.0647768
  12.6471888  43.5281076  19.9413831  12.5623183  44.3842043  20.0863400
  13.1356271  43.2525400  20.6095990  12.7060785  43.6138398  20.0615912
  14.2377888  30.1461369  25.3274155  13.9231329  30.8364848  25.7594578
  13.7204829  30.0906152  24.6259656  14.1142358  30.2396258  25.2871105
  13.5790321  40.1465870  21.4411566  13.0501793  40.3625504  22.1008872
  14.1015341  40.8402009  21.3612535  13.5778774  40.2809007  21.5267165
  19.0338374  45.7212175  26.8144610  18.2036077  45.9322819  26.9778027
  18.9847627  44.8949229  26.5386894  18.9045110  45.6301781  26.7981976
   5.4689929  44.0429087  20.2419034   4.8847144  44.5479119  20.6484898
   5.0660024  43.8171474  19.5015626   5.3229233  44.0837336  20.1924059
   1.0233958  49.7583848  27.0442706   0.5401536  50.4834338  27.0202289
   1.8357276  50.0559978  27.1552863   1.0724705  49.9086202  27.0569985
   7.0948112  48.5516029  29.6492520   6.5775053  48.1923444  29.0453828
   7.7922503  48.0278203  29.6598586   7.1213693  48.4213717  29.5622779
  10.7511704  49.0010843  35.6108693  10.8395050  48.8136984  36.4586903
  11.1801416  48.3548273  35.2113540  10.8273806  48.8773851  35.6780445
   8.3182164  48.2842003  34.5926355   7.7552998  47.8714613  35.1166016
   9.0803187  48.2094909  35.0119499   8.3476612  48.2119404  34.7319356
   9.9267144  40.2894739  18.7187955  10.1663147  40.4972723  17.9063298
  10.2482985  39.4852248  18.8276899  10.0104301  40.2008841  18.6148508
   5.2357434  32.2188135  22.5647493   5.9903402  32.5866452  22.3264543
   5.0584968  32.5927689  23.3326672   5.3211912  32.3286323  22.6432381
   3.8778155  50.2740024  27.1962985   4.5798734  49.7592013  27.2535742
   3.7975638  50.6014176  28.0009860   3.9701915  50.2454250  27.3235778
  18.5292333  38.3682576  30.6095032  17.6920754  38.4384763  30.8442626
  18.4980563  38.3707070  29.7369334  18.4010615  38.3792803  30.5154580
   4.9257062  40.5115611  36.3243400   5.0977565  40.4021506  37.1728682
   5.4626419  41.1570017  36.0874593   5.0302066  40.5907613  36.4148497
   3.5914498  34.6258454  19.2625606   3.4090072  34.8430335  18.4366598
   4.4540111  34.7397467  19.3184220   3.6919088  34.6748352  19.1480093
   3.2028930  46.4646376  26.7048593   4.0417830  46.6969309  26.7522355
   3.2340700  45.5950688  26.6355629   3.3310648  46.3703323  26.7013238
   3.8281633  46.8847251  31.0061899   4.3679858  46.7418382  31.6765271
   3.1451580  47.2844002  31.3745925   3.8073787  46.9226922  31.1596321
   9.2714218  31.6284865  22.2974629  10.0000378  31.4500820  21.8512786
   9.3609111  32.4702944  22.5081807   9.3920880  31.7268743  22.2628147
  13.2522518  42.5638252  26.2006923  14.0080033  42.9969766  26.2395832
  13.3584843  41.9143022  26.7741559  13.3792689  42.5315736  26.2904949
  16.2902689  46.3911529  26.9509326  15.8537921  46.3948272  27.7068298
  15.9565605  47.0717028  26.5188904  16.1765309  46.4923985  26.9990159
  10.8631763  48.4319862  38.2752477  11.6472180  48.5450710  38.6408219
  10.6628358  47.6060999  38.4711162  10.9497788  48.3266582  38.3586863
  16.2100172  33.4325357  29.1938754  16.8526081  33.5023462  29.7800669
  16.4623193  32.7654580  28.6918296  16.3422304  33.3451706  29.2066033
   3.1376525  37.9032627  17.7748079   2.4234703  37.6170806  18.1870511
   3.6220494  38.2429252  18.4154466   3.1035889  37.9114276  17.9303714
   3.9817385  36.6425921  33.8063328   3.2889182  36.1722900  34.0524060
   4.5977712  36.4164225  34.3805035   3.9701915  36.5393052  33.9272481
  11.0202156  50.3429964  31.9218932  10.2217402  50.1029464  32.1792801
  11.4688168  50.3944357  32.6685980  10.9676768  50.3152355  32.0703856
  19.4247036  43.1092449  25.8428964  20.0863470  42.5483118  25.7424872
  18.7838448  42.6144480  26.1681655  19.4275903  42.9528858  25.8761304
  10.3123843  46.4062581  18.1509887  10.7274992  46.0747604  17.4594383
   9.4815773  46.1731483  18.0230023  10.2511852  46.3233837  18.0300734
  15.7111866  44.1257832  25.5840952  15.9467456  44.2703031  24.7567803
  15.8601430  44.8900240  25.9772466  15.7677670  44.2596886  25.5204556
   2.7057944  40.6091325  34.9490173   3.4297916  40.5944355  35.4355068
   2.8074080  41.3186680  34.4512142   2.8276153  40.7116028  34.9468960
  17.5402323  42.9659498  23.4210556  17.8710540  43.4987138  22.8150651
  18.1135411  43.0198385  24.0772507  17.6736002  43.0529066  23.4288338
  10.0802893  44.0890409  39.8139120   9.2875874  44.4033921  39.9991740
  10.1951820  44.3041878  38.9759905   9.9798304  44.1674246  39.7177455
  12.7534212  40.8124400  24.1034136  12.8481067  41.5513694  24.5573762
  12.1293056  40.3841876  24.5368701  12.6743242  40.8585721  24.2342284
  11.0086686  43.9910613  34.7524417  11.5825548  43.3537857  34.9072981
  10.9301490  43.9914695  33.8834075  11.0819921  43.8975724  34.6470828
  13.0057234  42.6573140  17.3371088  12.9237396  42.7275327  18.2026075
  13.6436954  43.2202884  17.1454829  13.0877071  42.7512111  17.4361038
   6.3650405  42.4233878  26.8045615   6.1069649  41.5905613  26.7776914
   6.4198888  42.6491491  25.9638115   6.3350183  42.3331649  26.6765751
  11.4451455  34.5262329  26.9049707  10.7407782  34.0371514  27.0633626
  11.4936429  34.5384803  26.0338152  11.3481506  34.4551977  26.7989047
   5.3385117  39.9771640  27.2910509   4.7634708  40.1363809  27.9274470
   4.9620793  39.3407050  26.8278960   5.1987929  39.9069453  27.3165068
   9.0058405  38.4494990  32.1502888   8.6172838  38.0249207  31.4955079
   8.3413104  38.6977139  32.6579914   8.8505333  38.4233711  32.1290756
  18.6481675  38.2069994  24.9250718  18.3918239  37.3949936  24.7348601
  19.4910989  38.2147562  24.6980905  18.7347700  38.0881992  24.8635535
  10.1097344  42.6793594  20.3479695  10.9237983  42.9708487  20.2362466
  10.0456485  42.0253457  19.7737988  10.2200083  42.6258789  20.2468532
  16.3306834  45.3619590  34.7609270  16.0945471  44.5307655  34.6421331
  16.9750063  45.3105198  35.3464115  16.3901505  45.2317278  34.8295164
   5.9805252  46.1515112  25.4752007   6.6179199  45.9126859  26.0203800
   6.4060324  46.3552271  24.7405167   6.1381418  46.1466122  25.4469164
   0.6717894  48.3903448  29.3586311   0.7122040  48.6618299  28.5306090
   1.2312418  48.9145356  29.7744098   0.7601240  48.5079203  29.2978199
   6.6208067  41.3717402  19.8126896   7.0053220  41.1525108  20.5643441
   6.3719687  42.1980347  19.9427973   6.6410140  41.4615548  19.9427973
   6.7876607  34.6523817  39.5289480   6.4730048  35.4223379  39.2659043
   6.4666540  34.0894073  38.9441707   6.6935527  34.6834085  39.4030830
  17.3543255  45.1464039  30.8237565  17.0489072  45.8792096  31.1850880
  16.6349470  44.7401969  30.5430351  17.2030597  45.1945772  30.8350702
   8.3626724  46.6287534  27.1545793   8.4365732  46.4662706  28.0087643
   9.1796230  46.8177724  26.9106275   8.4943083  46.6324277  27.2443819
  23.0545047  41.7857040  30.1505909  22.9869547  41.8052999  29.2808496
  23.0400709  42.6287367  30.3761580  23.0423803  41.9130775  30.0558386
   2.1232481  46.9745397  24.1840237   1.2970598  47.2207134  24.0574515
   2.1844472  46.8957478  25.0502295   2.0106648  46.9990346  24.2929181
   4.3408504  33.0414338  25.1435677   3.4730930  33.1136938  25.2093286
   4.6283709  33.8436417  25.3323652   4.2548252  33.1708485  25.1810443
  13.4641393  33.1892198  33.4746999  14.2094985  33.0002008  33.0610424
  13.0478698  33.7150436  32.9160855  13.5126367  33.2394343  33.3311572
   6.9031310  49.5922277  21.8859266   7.1929608  49.2011259  21.1618493
   7.6334791  49.7738982  22.3264542   7.0538194  49.5616091  21.8442073
  20.8403664  40.5601426  28.4252503  21.3911586  39.9269495  28.6649596
  20.8247779  41.0916819  29.1168008  20.9188860  40.5450374  28.5631362
   7.4926055  44.3940023  32.9712397   6.9937749  45.1055791  33.0497285
   8.3026279  44.7140690  32.9330559   7.5382162  44.5466872  32.9768965
   4.8437225  51.5689660  24.9519416   4.6237521  51.2787015  25.7446083
   4.6231747  50.9104615  24.4237328   4.7784819  51.4289368  24.9908325
   3.7554172  43.6562976  27.2175118   3.4667421  43.0300448  27.7520845
   4.6237521  43.5983264  27.2839798   3.8414424  43.5550521  27.3066072
  14.5432070  38.7997760  27.5357100  14.1996836  38.0788095  27.8864349
  14.6425113  38.5911611  26.6935458  14.5074113  38.6621963  27.4628780
   7.0105181  52.9419050  23.7350109   7.6629239  52.4095492  23.9641135
   6.3130790  52.5887702  24.1217983   7.0035899  52.8108573  23.8262276
   3.9586446  45.2958227  23.1417483   4.7132414  45.6771267  23.3552945
   3.3657058  45.7469371  23.5964179   3.9823159  45.4187055  23.2400361
  15.0045099  45.2623464  23.0781088  15.5703132  45.9216674  22.9939631
  14.3573003  45.6073162  23.5497490  14.9923856  45.4105405  23.1353844
   6.4193113  37.2521068  38.2674695   5.6092889  37.5578847  38.1564537
   6.8967800  37.9726650  38.3827279   6.3696592  37.4035669  38.2681766
   5.2784672  46.4666789  28.5157598   4.7565426  46.6067080  29.2009463
   5.6658693  45.7077453  28.7059716   5.2588373  46.3752313  28.6458675
   2.2675856  36.5172598  22.5852553   1.9800652  36.1473868  21.8484500
   2.9546325  36.9867453  22.3236258   2.3264754  36.5319567  22.4367629
  11.4751677  48.2062248  22.5018167  11.2338353  47.4730109  22.0945232
  11.6553010  48.7549105  21.8484500  11.4659301  48.1784639  22.3448390
   6.7050998  43.4970808  23.9139089   6.5093781  44.1045542  23.3199392
   6.9285344  42.8038752  23.4330763   6.7085639  43.4848333  23.7555170
   5.1029528  40.3825546  24.0319958   5.8252180  40.5466704  23.5723764
   4.6237521  41.1035211  23.9259297   5.1393259  40.5123775  23.9485572
  13.0623036  36.7189345  29.4116643  12.2234136  36.7450623  29.1754906
  13.1327403  37.3660080  29.9921989  12.9491429  36.8185470  29.4625759
   2.7537145  42.7883618  33.1374098   3.2658242  43.0667871  32.4882857
   2.4673487  43.5272912  33.5036911   2.7872008  42.9385972  33.0963976
  11.5092314  33.6174722  24.1444259  12.2118667  33.4182470  23.6664217
  11.2436503  32.8450664  24.4513102  11.5738946  33.4737688  24.1189700
   6.2720870  34.8810007  33.1975139   6.0804067  34.8965141  34.0474563
   7.1219466  35.0773681  33.1741794   6.3696592  34.9124358  33.3198434
   0.6567783  37.4100988  31.1758956   0.5153275  36.5584929  31.3003464
   0.9408347  37.4529649  30.3521162   0.6775629  37.2900738  31.0726580
  10.8106376  39.2468078  25.3203444  10.5641090  39.1663829  26.1540233
  11.1391499  38.4621546  25.1265971  10.8227619  39.1194344  25.4150967
  14.7054424  45.9551438  29.1090225  14.5668784  46.6532484  29.6138967
  13.9254422  45.8000094  28.7526407  14.5697651  46.0351604  29.1316499
  13.0432510  42.2547813  35.3612607  13.0380548  41.3827630  35.3655033
  13.7493503  42.4535982  34.8882062  13.1477513  42.1551687  35.2919642
   6.7703403  41.9824797  34.7326427   6.9146779  42.5626005  34.0969537
   7.1179051  42.3601094  35.4376282   6.8430864  42.1245501  34.7425422
   8.9423320  41.1814965  32.5151559   8.1946634  41.3745980  32.1099837
   9.0964845  40.3560185  32.2775680   8.8545748  41.0880077  32.4196964
   5.8431158  50.1727569  31.5987454   5.9920722  49.6130485  30.9460858
   6.6231160  50.2519571  31.9819973   5.9805251  50.1013134  31.5584403
  16.2007797  45.3129692  19.8706724  15.8214606  44.5266829  19.8636014
  15.5374043  45.8616549  19.7278369  16.0466272  45.2774516  19.8487521
   8.3684458  50.3442212  32.8771945   8.2928130  49.6751022  33.4322733
   8.2974318  51.0460000  33.3912611   8.3465065  50.3487119  33.0348793
   9.1825097  35.0765516  33.4046962   9.6397711  35.8089490  33.5319754
   9.2581426  34.6531981  34.1634218   9.2616067  35.1222754  33.5348039
   1.4258088  35.3231336  34.4936406   0.8900278  34.7111694  34.8097173
   1.4875853  35.8979472  35.1470073   1.3553721  35.3178264  34.6371833
  13.6552423  28.2555391  27.2740805  13.7735991  28.7131855  26.5408108
  13.4814599  27.4500653  26.9877023  13.6471594  28.2049163  27.1241739
   9.0254705  48.8643211  23.7095551   9.7904596  48.5952854  23.3878215
   8.9232795  48.3793221  24.4265613   9.1236201  48.7532775  23.7675378
   7.0607475  37.0667620  30.2488786   6.2703550  36.8859080  30.5706122
   7.4568098  36.2894573  30.2319081   7.0024351  36.9255081  30.2941335
  11.5473366  45.8955394  15.6895500  12.3146351  45.9555519  15.2801352
  11.1004675  45.3235836  15.2051818  11.5946793  45.8191970  15.5573210
  12.4451161  44.7010050  27.9748232  11.7696163  44.4695282  28.4761619
  12.4543538  44.0931233  27.3490337  12.3469666  44.5768975  27.9564384
   9.5745305  39.5427879  34.7312285   9.5104447  40.4037836  34.6032422
   9.7142493  39.2259872  33.9307836   9.5860775  39.6228046  34.5940498
  14.4467896  47.5575183  20.2058410  14.5287733  48.3642169  19.8819861
  14.9317638  47.5771142  20.9299184  14.5305054  47.6795845  20.2645309
   8.2564399  42.2360018  28.8728488   7.8326648  42.4364518  28.1367506
   8.0809254  41.3888866  28.9852788   8.1675280  42.1408800  28.7802178
   7.7576093  53.7510531  31.3349945   8.2472023  53.0521321  31.1525610
   7.1860325  53.4534401  31.9226003   7.7460623  53.6036755  31.3950986
   3.5446844  42.7312070  24.3056461   3.7011463  42.6658873  25.1612453
   3.8847437  43.5060622  24.0935140   3.6180079  42.8361268  24.4011055
  10.0825989  42.1069953  23.1749824  10.6241534  41.6040335  23.6388444
  10.3972548  42.0535148  22.3639309  10.2090386  42.0249374  23.1233636
  13.9543096  46.3172601  40.2876736  14.7677962  46.0457750  40.4481869
  13.7938063  46.0180141  39.4836932  14.0513045  46.2327527  40.1922142
   8.2512439  47.4987305  20.4589852   8.3205259  46.6401843  20.5982852
   9.0300894  47.7159186  20.1308876   8.3765289  47.4040169  20.4307009
  11.2315258  37.0006258  33.2272124  11.4457228  36.3617172  32.6735478
  10.6149157  37.4452082  32.7979986  11.1720587  36.9716402  33.0822555
  12.6419926  49.9225006  24.6726345  12.2499718  49.6191721  23.9549211
  12.7972998  50.7594096  24.4831299  12.6073516  50.0008843  24.5382842
  13.3954346  38.6095323  34.1655431  12.5831028  38.3021214  34.2468604
  13.8544281  38.1294323  34.7298144  13.3434731  38.4931816  34.2610026
  12.8059601  46.4874995  24.6132376  12.4474256  46.6589638  25.3896408
  12.3198312  46.9488201  24.0560374  12.6818298  46.5813966  24.6457645
  10.6229987  30.1106194  28.2159467   9.7523545  30.0844915  28.1692777
  10.8770328  29.9383386  27.3985313  10.5323547  30.0816337  28.0879604
   7.5947966  42.1674161  17.1532610   7.8840491  42.9439043  17.4276184
   7.6819765  41.6562892  17.8547109   7.6502223  42.2066079  17.2975108
  10.4907854  40.0155395  38.9484134  10.9607485  40.6397511  39.3352008
  10.5369734  39.3472370  39.5077348  10.5675730  40.0090075  39.0884205
   7.6479127  32.1212422  29.6732937   7.1317616  31.4292614  29.7984516
   7.0873056  32.7883199  29.6195536   7.4885641  32.1175680  29.6839003
   9.7171361  32.6605382  31.5025790   9.3303114  32.6854414  32.2839320
   9.2304298  32.0947061  31.0500307   9.5883870  32.5801133  31.5513694
  13.9664340  47.3778891  35.5599577  14.6044061  46.8839087  35.2262033
  13.3238432  47.3056292  34.9751803  13.9658567  47.2937900  35.4241932
  15.6921340  39.2268037  30.1265492  15.2648948  39.1394386  29.3713592
  15.0547393  39.3345813  30.7120336  15.5350948  39.2300697  30.1010934
   9.3828503  29.5472368  33.7936050  10.0121621  30.0832668  33.5157120
   9.5514365  29.4549727  34.6449616   9.5006297  29.6133730  33.8784578
   9.1842417  34.3343562  36.0662462  10.0115847  34.0628711  36.1221076
   9.2050264  35.1304404  36.4226280   9.3095268  34.4123317  36.1277644
  14.0218597  48.0698699  32.2004933  14.8110975  47.7187764  32.3207015
  14.1962195  48.8835088  31.9381567  14.1638879  48.1384557  32.1792801
   3.7611907  41.4807425  29.2532722   2.9199914  41.3811299  29.4611616
   3.9701915  42.2502905  29.6047043   3.6676600  41.5799468  29.3360037
   1.2387474  39.1026962  27.0817473   0.8444172  39.1769974  26.3067583
   0.6827591  39.4884908  27.6325835   1.0990287  39.1708737  27.0485133
  12.8752421  32.0808256  26.7621352  13.0802014  32.0130564  27.6078349
  12.5478845  32.8867077  26.6942529  12.8567669  32.1894197  26.8781007
   6.6294669  36.7189344  23.0675022   6.9054404  36.0008257  22.6552589
   7.2293339  37.3174264  22.8596128   6.7587934  36.7009715  22.9755783
   5.6346923  46.6238545  33.2102418   5.5267278  46.6340607  34.0764476
   5.8442705  47.4493325  33.0207371   5.6497034  46.7479620  33.3106509
  16.1286109  32.6340020  26.2424117  15.5160422  33.1210423  26.6277849
  16.2250284  31.9583511  26.7861768  16.0524006  32.6058329  26.3802975
  10.1305190  34.3902862  21.3421617  10.5848936  34.5613422  22.0669461
  10.6045235  33.7770972  20.9419392  10.2673510  34.3253747  21.3895378
   3.6520715  43.8751187  30.6724355   3.0608648  44.5160686  30.6427370
   4.4141739  44.2988805  30.6455655   3.6768976  44.0327026  30.6639502
   4.0481338  35.0353185  31.3392373   4.5082820  35.1092115  32.0767496
   4.0937445  35.8334439  30.9892194   4.1231893  35.1647332  31.3965129
   5.6964688  35.7019880  35.9064400   5.3050253  35.0553227  36.3420178
   5.8650550  36.2931315  36.5258655   5.6635598  35.6934148  36.0627106
  19.7711137  43.7056957  31.6701633  19.8294260  44.1543606  32.4161610
  19.1377604  44.1155770  31.2331713  19.6862432  43.8330692  31.7154182
  13.4110231  49.3260499  28.1056380  13.2129920  49.8151313  27.4112591
  12.7897942  49.5301741  28.6840513  13.2897796  49.4277037  28.0879603
   7.4718210  41.0945396  22.4466624   8.2160255  41.4819672  22.6849574
   7.6178906  40.2502821  22.6107112   7.6028795  41.0275869  22.5060594
   9.3897785  32.8895655  27.4798485   8.5433830  33.0618463  27.3539835
   9.3868918  32.0844998  27.8164314   9.2644935  32.7956684  27.5109612
  10.4596086  36.6670869  28.3460543   9.9856040  36.1412631  28.8565854
  10.8314221  36.1200342  27.7775405  10.4445975  36.5086866  28.3375690
   0.8369116  38.6642376  33.7144089   1.6994729  38.5638085  33.6281419
   0.5060899  38.0837085  33.1529661   0.9154312  38.5634003  33.6189495
  16.7232816  41.7273245  29.7567324  16.4831039  40.8879660  29.7609750
  17.2024823  41.8073412  30.4808097  16.7585000  41.6154645  29.8642126
  12.3879585  37.5607424  21.4086297  11.8602604  37.6436168  20.7192006
  12.8475293  38.3025295  21.4050942  12.3781436  37.6828086  21.3060992
  18.7238003  38.5074702  27.7096583  18.4847773  38.4670536  26.8717367
  18.8871904  39.3545854  27.8362304  18.7128307  38.6266787  27.6050065
  15.3284033  42.8924651  33.6401628  16.0518232  42.4397178  33.4612648
  15.0633996  43.1729317  32.8573956  15.3965307  42.8675620  33.4980343
   4.1970902  37.4884825  30.3754507   3.5723972  37.5003217  29.7680460
   3.8616497  37.9645000  31.0245747   4.0556394  37.5603342  30.3811076
   4.3812650  35.8309943  16.4327192   4.0325455  36.4829669  16.8958741
   3.9009096  35.8167056  15.7051063   4.2582894  35.9252997  16.3938283
  11.9416668  46.1310987  20.5395954  12.6650867  46.5969100  20.3960527
  11.5017259  46.1984597  19.7893551  11.9832360  46.2094824  20.4080735
  11.1102823  42.9908530  31.7896643  10.4959816  42.4466580  32.0845278
  11.6270108  42.4772766  31.3102459  11.0958485  42.8344939  31.7620871
  10.3499120  44.0612800  29.5240942   9.9226728  43.4362518  29.0906377
  10.3424064  43.7787721  30.3499949  10.2858261  43.9265580  29.5820769
   3.4661647  39.0977973  32.5929376   3.6255134  38.3421297  32.9981098
   3.2854541  39.6468912  33.2470113   3.4627006  39.0671786  32.7492082
  11.4081950  31.2639208  33.1480165  10.9122511  31.4602882  32.4571732
  12.1651012  31.6631876  32.9768967  11.4468775  31.3516942  33.0200302
   8.6784830  34.9381554  29.7383476   8.7027317  34.4041666  29.0496256
   8.9296303  34.4298863  30.4009066   8.7194748  34.7842458  29.7348120
   4.9586152  33.6652372  29.1189220   4.9984524  34.1661579  29.8323927
   4.1335817  33.7562766  28.8495143   4.8425678  33.7534189  29.1839758
   7.1415765  43.2313112  37.2209515   6.2911395  43.3684827  37.3567159
   7.3043893  42.4976891  37.6657216   7.0399628  43.1427214  37.3065114
   6.3800515  40.1812882  31.4163119   5.5492445  40.3486700  31.2098367
   6.3252032  39.8048833  32.2012004   6.2489930  40.1502613  31.5011647
   4.1884299  33.6721775  37.0519530   4.8137002  33.1283908  37.3248962
   3.7334778  33.1916693  36.4827320   4.2132559  33.5211256  37.0081123
   4.7536559  38.4568474  21.9453237   4.8939520  38.9540938  22.6481878
   5.2519092  37.7554768  22.0867450   4.8477640  38.4270453  22.0704816
   4.7836782  39.3235585  19.2745813   5.4181861  39.9196010  19.2095275
   4.8662392  39.0239042  20.0891684   4.8893332  39.3676493  19.3848900
  17.7619347  41.8551062  32.1432178  18.3537188  42.4948313  32.1750376
  18.1978342  41.1574099  32.4324244  17.9137779  41.8469412  32.1913010
   6.3615764  35.2549560  19.2491255   6.6831605  34.7752643  18.5950518
   6.6242708  36.0649206  19.0582067   6.4481790  35.3039458  19.1246748
   9.5912737  46.2768435  32.7690072   9.0837828  46.8304281  33.2130702
   9.2939383  46.3376724  31.9508846   9.4717622  46.3674746  32.7138528
  11.7574919  34.6421754  31.6114735  12.1829991  34.1894281  30.9998261
  11.1431912  34.0881825  31.8879522  11.7303565  34.4935730  31.5619760
   1.2889769  41.5203426  22.5435359   1.7981999  42.1167933  22.9246665
   1.7624042  41.2529399  21.8611779   1.4333145  41.5689241  22.4989882
  12.2020517  50.1931692  20.6994015  11.4849827  50.0192554  20.2341252
  12.8527255  49.9584265  20.1669501  12.1922368  50.1327485  20.5523233
  10.1969142  31.1136854  25.0205312   9.5537460  30.9634500  25.5890450
   9.8568549  30.8679199  24.2554416  10.0514220  31.0548976  24.9908327
  14.7868489  39.0696281  24.4435320  14.1159679  39.6125983  24.3148386
  15.4808239  39.5391136  24.2017015  14.7897356  39.2194552  24.3890848
   8.8355222  51.2092993  29.6747078   8.6120877  50.4511822  30.0431105
   8.3465066  51.2391014  28.9527518   8.7298671  51.1015217  29.6223819
  14.9496616  35.5252164  27.3525693  15.3024226  35.0981887  28.0271492
  14.0911418  35.4403008  27.4826770  14.8746061  35.4496905  27.4720704
   3.6480301  38.1559684  25.4108540   2.9292290  38.5723817  25.6781403
   4.0192663  38.7213923  24.8600178   3.5972233  38.3008966  25.3691347
  12.9479882  38.7887533  31.3010536  12.9277809  38.6070828  32.1545314
  12.9959083  39.6599552  31.2770119  12.9514523  38.8904071  31.4233830
  10.8926212  45.3774725  37.2259012  10.8522067  44.7324402  36.6404168
  11.7049530  45.3211342  37.5384424  11.0069365  45.2733692  37.1855961
   7.4833679  51.4293451  27.1284163   7.0694078  50.7667581  26.7388005
   8.1681054  51.5771310  26.6079857   7.5232051  51.3534109  26.9940660
  10.8498973  50.5883536  27.8807780  10.4515257  50.6985806  27.1128600
  10.2350193  50.7965602  28.4634339  10.6997863  50.6357104  27.8539079
   9.4226876  37.1957684  20.7481919   8.8291715  37.5174680  20.1966486
   9.4602153  36.3498779  20.5403026   9.3401265  37.1182012  20.6364691
  16.3820676  30.6470576  28.2810006  15.8751541  29.9399716  28.2131183
  17.1788110  30.3163765  28.4111082  16.4247915  30.4943728  28.2909001
  12.2984692  37.1537188  24.1783670  12.0698385  37.1769890  23.3362028
  12.5582768  36.3294656  24.2978680  12.3030880  37.0353268  24.0708867
   6.5803921  39.0071662  33.7808770   6.0682824  38.3992844  34.1393801
   6.4083417  39.7228254  34.2482746   6.4793558  39.0234961  33.9024993
   1.4269635  37.4509237  36.4311132   1.2572225  38.1110612  35.8859338
   0.9835585  37.6615798  37.1523621   1.3368969  37.5795219  36.4572761
   5.3529455  35.6913735  25.4737865   5.8286821  36.0530815  24.8388046
   4.8518054  36.3470202  25.7538008   5.3494814  35.8407924  25.4214606
  18.5840816  45.1635503  21.2650870  18.9674422  45.9126859  21.4948967
  17.7884929  45.4101323  21.0062859  18.5234598  45.3105197  21.2608444
  10.4572991  36.9295906  36.2211025  11.0144421  36.7009716  35.5889491
  10.1334056  37.6901572  35.9446238  10.4919401  37.0079743  36.0867522
   8.1756108  40.0163559  37.1863032   8.9267435  40.3315236  37.5002587
   8.3678685  39.8142730  36.3596954   8.3147522  40.0330941  37.1106428
   7.3956108  37.8354935  18.8411249   7.7755073  37.8534564  18.0562364
   6.6548704  38.2808923  18.7202097   7.3424945  37.9036709  18.7074817
  15.0241398  36.1437126  24.4286828  15.0235625  35.9885782  25.2871104
  14.8197578  36.9900113  24.3728214  14.9941176  36.2457747  24.5474767
  12.7482250  40.8234628  28.0823035  13.2435916  40.1057623  28.0427055
  11.9382026  40.5205425  27.9677522  12.7026144  40.6732274  28.0596761
   8.1940862  44.6732441  20.2320039   7.3852185  44.3499114  20.1853349
   8.7015771  43.9665663  20.1648288   8.1490529  44.5213757  20.2150334
  14.8134069  43.5738315  30.7700164  15.2389141  43.0512737  30.2170589
  14.4490989  44.1719152  30.2488787  14.8220672  43.5848542  30.6109173
   4.4488149  51.8702533  29.5297509   4.7634708  52.6838921  29.5375291
   4.8581562  51.4852751  30.1979668   4.5556247  51.9331235  29.6301601
  11.4012669  47.2872579  27.1001321  11.8723847  48.0012842  27.2691306
  11.7372847  46.6871329  27.6361191  11.5207784  47.3044044  27.2033697
  13.4889653  48.8973893  39.2793393  13.5986619  48.1082453  39.6350140
  13.8180550  48.8079829  38.4767731  13.5542059  48.7679746  39.2135784
   8.3182164  32.0600050  34.0559416   8.4510069  31.2631043  34.3840391
   8.7027316  32.5866453  34.6357691   8.3938492  32.0199967  34.1902919
  12.0386615  47.0790514  33.8629014  11.4907561  46.4548397  33.5949079
  12.4999644  47.2684786  33.1473093  12.0253824  47.0149564  33.7179445
  11.3914519  28.9830376  30.6540509  10.5860482  28.8728106  30.9708347
  11.2621254  29.0842832  29.7970375  11.2534652  28.9814046  30.5748549
  14.8480479  35.1475868  31.2480206  14.2643468  35.6485074  30.8357773
  15.1684773  34.6405424  30.6144529  14.8093655  35.1467703  31.0938713
   7.3875278  34.0616463  21.5238881   8.2090973  34.2314776  21.2820576
   6.9244929  34.2163724  20.8005178   7.4406441  34.1098196  21.3810525
   5.9770610  32.0559225  32.3037310   6.5215023  31.7150352  32.8941651
   6.0307546  32.9144687  32.4458594   6.0659730  32.1314484  32.4119183
   1.7901169  45.8175641  29.1776117   2.3946026  45.7771475  28.5489938
   1.5828482  46.6646793  29.2080173   1.8490066  45.9363644  29.0892234
  11.6044941  48.0841586  30.3938355  12.4243315  47.9404552  30.6554650
  11.3239019  48.7087785  30.9354793  11.6841685  48.1551938  30.5126294
  28.0758592  55.7406438  23.3581231  28.0452596  56.5951075  23.5299501
  28.6739940  55.4401730  23.9167375  28.1595750  55.8222934  23.4656034
  21.2758276  54.8282089  28.1134162  20.4196172  54.9890587  28.1643278
  21.3225930  53.9574153  28.1339223  21.1557388  54.7232891  28.1240228
  15.6599416  64.3644807  23.8771393  14.9082316  63.9860345  23.6487438
  16.1085428  64.3963240  23.1290204  15.6149083  64.3130414  23.7328895
  24.5851993  61.0968615  37.7194618  25.2918760  60.6020645  37.8481552
  24.7739928  61.5377696  36.9897276  24.7179899  61.0886965  37.6303663
  21.1124376  64.7870176  19.3056940  20.7775745  65.4647098  18.8701162
  21.6251247  64.3975488  18.7173812  21.1389957  64.8294754  19.1543732
  20.6528667  66.7384445  25.2468052  21.0368047  67.3071344  24.7072827
  20.5887809  66.0133955  24.7673868  20.7002095  66.7159908  25.0961914
  24.1210098  56.8874133  30.7565813  24.6666058  57.5659219  30.8159783
  24.0626974  56.7461594  29.8967395  24.1926012  56.9666135  30.6377874
  17.2384172  64.3763199  26.1434166  17.3394535  63.5663553  26.4531293
  16.6425918  64.2820145  25.5133844  17.1656711  64.2428227  26.0960404
  25.8975166  58.3158740  21.6299541  25.7814692  59.0666426  22.0591679
  26.6931053  58.0582693  21.8795628  25.9979756  58.3893587  21.7303633
  17.0784912  69.2940788  27.5449022  17.7222367  69.7353952  27.9345180
  17.4041167  68.4894214  27.4579281  17.2216741  69.2405983  27.5894499
  10.4349217  60.3983485  25.7686499  10.1999401  59.5651138  25.6618768
  10.5734857  60.6788151  24.9547700  10.4204879  60.3166989  25.6328854
  12.7339304  52.5669216  28.6670807  12.1144336  51.9761863  28.4980822
  12.6323168  53.1580651  28.0335130  12.6276980  52.5673299  28.5475797
  17.7805492  62.3052763  22.9168883  18.1021333  62.8457970  22.3130192
  18.4277588  61.7349534  23.0491173  17.9231547  62.3011938  22.8475919
  19.8307200  54.3068758  23.0003270  20.5287364  54.4856885  23.4924733
  20.1459532  53.7839097  22.3773660  19.9802537  54.2562530  22.9805280
  12.4608437  56.1121498  30.9114376  12.3367134  56.6983943  31.5464195
  13.1126722  55.6181694  31.2126651  12.5382086  56.1260302  31.0500305
  20.0195135  60.6939203  22.9883062  20.4588771  60.0856303  23.4337834
  19.8699798  60.3146576  22.2168527  20.0616601  60.5477674  22.9402229
  17.4866778  59.2883215  30.1901887  18.1315781  58.7955658  29.8712836
  17.7268555  59.4308001  31.0167965  17.6177363  59.2360657  30.2651420
  20.0252869  62.1338121  29.8408780  20.3076112  61.3389526  29.6195536
  20.7539030  62.6118708  29.8613841  20.1742433  62.0872718  29.8111795
  18.0034063  49.6761155  27.0824545  17.6737393  50.1272298  26.4128244
  17.3279065  49.5977318  27.6297551  17.8544500  49.7312290  27.0647768
  23.6204472  59.0466384  19.9413831  23.5355767  59.9027351  20.0863400
  24.1088855  58.7710708  20.6095990  23.6793369  59.1323706  20.0615912
  25.2110471  45.6646677  25.3274155  24.8963912  46.3550156  25.7594578
  24.6937413  45.6091460  24.6259656  25.0874942  45.7581566  25.2871105
  24.5522905  55.6651178  21.4411566  24.0234376  55.8810812  22.1008872
  25.0747925  56.3587317  21.3612535  24.5511358  55.7994315  21.5267165
  30.0070958  61.2397483  26.8144610  29.1768661  61.4508126  26.9778027
  29.9580210  60.4134537  26.5386894  29.8777693  61.1487089  26.7981976
  16.4422513  59.5614395  20.2419034  15.8579728  60.0664427  20.6484898
  16.0392608  59.3356782  19.5015626  16.2961817  59.6022643  20.1924059
  11.9966541  65.2769156  27.0442706  11.5134120  66.0019646  27.0202289
  12.8089860  65.5745286  27.1552863  12.0457289  65.4271510  27.0569985
  18.0680695  64.0701337  29.6492520  17.5507637  63.7108752  29.0453828
  18.7655087  63.5463511  29.6598586  18.0946277  63.9399025  29.5622779
  21.7244287  64.5196151  35.6108693  21.8127633  64.3322291  36.4586903
  22.1534000  63.8733581  35.2113540  21.8006390  64.3959159  35.6780445
  19.2914747  63.8027311  34.5926355  18.7285582  63.3899921  35.1166016
  20.0535771  63.7280217  35.0119499  19.3209196  63.7304712  34.7319356
  20.8999727  55.8080047  18.7187955  21.1395731  56.0158031  17.9063298
  21.2215568  55.0037556  18.8276899  20.9836885  55.7194148  18.6148508
  16.2090017  47.7373443  22.5647493  16.9635985  48.1051760  22.3264543
  16.0317552  48.1112997  23.3326672  16.2944496  47.8471631  22.6432381
  14.8510739  65.7925332  27.1962985  15.5531318  65.2777321  27.2535742
  14.7708222  66.1199484  28.0009860  14.9434499  65.7639558  27.3235778
  29.5024916  53.8867883  30.6095032  28.6653337  53.9570071  30.8442626
  29.4713147  53.8892378  29.7369334  29.3743199  53.8978111  30.5154580
  15.8989645  56.0300919  36.3243400  16.0710149  55.9206814  37.1728682
  16.4359003  56.6755325  36.0874593  16.0034649  56.1092921  36.4148497
  14.5647082  50.1443762  19.2625606  14.3822655  50.3615643  18.4366598
  15.4272695  50.2582775  19.3184220  14.6651672  50.1933660  19.1480093
  14.1761514  61.9831684  26.7048593  15.0150413  62.2154617  26.7522355
  14.2073283  61.1135996  26.6355629  14.3043232  61.8888631  26.7013238
  14.8014217  62.4032559  31.0061899  15.3412442  62.2603690  31.6765271
  14.1184163  62.8029310  31.3745925  14.7806371  62.4412230  31.1596321
  20.2446801  47.1470173  22.2974629  20.9732962  46.9686128  21.8512786
  20.3341694  47.9888252  22.5081807  20.3653463  47.2454051  22.2628147
  24.2255102  58.0823560  26.2006923  24.9812617  58.5155074  26.2395832
  24.3317426  57.4328330  26.7741559  24.3525273  58.0501044  26.2904949
  27.2635273  61.9096837  26.9509326  26.8270505  61.9133580  27.7068298
  26.9298188  62.5902336  26.5188904  27.1497893  62.0109293  26.9990159
  21.8364347  63.9505170  38.2752477  22.6204763  64.0636018  38.6408219
  21.6360941  63.1246307  38.4711162  21.9230372  63.8451889  38.3586863
  10.2051362  58.6232850  31.1596320   9.9389777  57.8071967  31.3187311
  10.2189926  58.6686006  30.2891836  10.1676084  58.5089755  31.0549802
  27.1832756  48.9510665  29.1938754  27.8258664  49.0208770  29.7800669
  27.4355777  48.2839888  28.6918296  27.3154888  48.8637014  29.2066033
  14.1109109  53.4217935  17.7748079  13.3967286  53.1356114  18.1870511
  14.5953078  53.7614560  18.4154466  14.0768472  53.4299584  17.9303714
  14.9549968  52.1611228  33.8063328  14.2621765  51.6908208  34.0524060
  15.5710296  51.9349533  34.3805035  14.9434498  52.0578360  33.9272481
  21.9934740  65.8615272  31.9218932  21.1949986  65.6214772  32.1792801
  22.4420751  65.9129665  32.6685980  21.9409351  65.8337663  32.0703856
  30.3979619  58.6277757  25.8428964  31.0596053  58.0668426  25.7424872
  29.7571031  58.1329788  26.1681655  30.4008487  58.4714166  25.8761304
  21.2856427  61.9247889  18.1509887  21.7007575  61.5932912  17.4594383
  20.4548357  61.6916791  18.0230023  21.2244436  61.8419145  18.0300734
  10.6144776  59.4091630  28.4408065  10.4320349  59.3838516  27.5880357
  11.3494445  59.8790567  28.4796973  10.6958840  59.4752992  28.3205983
  26.6844450  59.6443140  25.5840952  26.9200039  59.7888338  24.7567803
  26.8334014  60.4085548  25.9772466  26.7410253  59.7782194  25.5204556
  28.5134907  58.4844805  23.4210556  28.8443124  59.0172446  22.8150651
  29.0867995  58.5383693  24.0772507  28.6468586  58.5714374  23.4288338
  21.0535477  59.6075717  39.8139120  20.2608458  59.9219229  39.9991740
  21.1684404  59.8227185  38.9759905  20.9530887  59.6859554  39.7177455
  23.7266796  56.3309708  24.1034136  23.8213650  57.0699002  24.5573762
  23.1025639  55.9027184  24.5368701  23.6475826  56.3771029  24.2342284
  21.9819270  59.5095921  34.7524417  22.5558131  58.8723165  34.9072981
  21.9034073  59.5100003  33.8834075  22.0552505  59.4161032  34.6470828
  10.5815686  56.2885130  28.5907131  11.1589189  56.1521581  29.2299377
   9.8829748  55.8320914  28.8452716  10.5636707  56.2007396  28.7229421
  23.9789817  58.1758448  17.3371088  23.8969980  58.2460635  18.2026075
  24.6169538  58.7388192  17.1454829  24.0609654  58.2697419  17.4361038
  17.3382988  57.9419186  26.8045615  17.0802233  57.1090921  26.7776914
  17.3931471  58.1676799  25.9638115  17.3082766  57.8516957  26.6765751
  22.4184038  50.0447637  26.9049707  21.7140365  49.5556822  27.0633626
  22.4669013  50.0570111  26.0338152  22.3214090  49.9737285  26.7989047
  16.3117700  55.4956948  27.2910509  15.7367292  55.6549117  27.9274470
  15.9353377  54.8592358  26.8278960  16.1720513  55.4254761  27.3165068
  19.9790989  53.9680298  32.1502888  19.5905422  53.5434515  31.4955079
  19.3145687  54.2162447  32.6579914  19.8237917  53.9419019  32.1290756
  29.6214258  53.7255302  24.9250718  29.3650823  52.9135244  24.7348601
  30.4643572  53.7332870  24.6980905  29.7080284  53.6067300  24.8635535
   6.0574519  55.1397023  25.3054950   6.1434771  54.7628891  26.0868480
   6.6850317  54.7657469  24.8274908   6.1631070  55.0282505  25.3500427
  23.8017351  47.6654926  29.6626872  24.1827862  46.9833098  30.0494746
  22.9980635  47.3764529  29.4802536  23.7393812  47.5221975  29.6930928
  21.0829927  58.1978902  20.3479695  21.8970566  58.4893795  20.2362466
  21.0189069  57.5438765  19.7737988  21.1932666  58.1444097  20.2468532
  27.3039417  60.8804898  34.7609270  27.0678055  60.0492963  34.6421331
  27.9482646  60.8290506  35.3464115  27.3634088  60.7502586  34.8295164
  16.9537836  61.6700420  25.4752007  17.5911783  61.4312167  26.0203800
  17.3792907  61.8737579  24.7405167  17.1114002  61.6651430  25.4469164
  11.6450478  63.9088756  29.3586311  11.6854623  64.1803607  28.5306090
  12.2045002  64.4330664  29.7744098  11.7333824  64.0264511  29.2978199
  17.5940651  56.8902709  19.8126896  17.9785803  56.6710416  20.5643441
  17.3452271  57.7165655  19.9427973  17.6142723  56.9800856  19.9427973
  17.7609191  50.1709125  39.5289480  17.4462632  50.9408687  39.2659043
  17.4399124  49.6079381  38.9441707  17.6668110  50.2019393  39.4030830
  28.3275838  60.6649347  30.8237565  28.0221655  61.3977404  31.1850880
  27.6082054  60.2587277  30.5430351  28.1763180  60.7131080  30.8350702
  19.3359308  62.1472842  27.1545793  19.4098316  61.9848014  28.0087643
  20.1528814  62.3363032  26.9106275  19.4675666  62.1509585  27.2443819
  34.0277630  57.3042348  30.1505909  33.9602131  57.3238307  29.2808496
  34.0133293  58.1472675  30.3761580  34.0156387  57.4316083  30.0558386
  13.0965064  62.4930705  24.1840237  12.2703182  62.7392442  24.0574515
  13.1577055  62.4142786  25.0502295  12.9839231  62.5175654  24.2929181
  15.3141088  48.5599646  25.1435677  14.4463513  48.6322246  25.2093286
  15.6016292  49.3621725  25.3323652  15.2280836  48.6893793  25.1810443
  24.4373977  48.7077506  33.4746999  25.1827569  48.5187316  33.0610424
  24.0211281  49.2335743  32.9160855  24.4858951  48.7579651  33.3311572
  17.8763893  65.1107585  21.8859266  18.1662192  64.7196567  21.1618493
  18.6067374  65.2924290  22.3264542  18.0270777  65.0801399  21.8442073
  31.8136248  56.0786734  28.4252503  32.3644169  55.4454803  28.6649596
  31.7980363  56.6102127  29.1168008  31.8921444  56.0635682  28.5631362
  18.4658638  59.9125331  32.9712397  17.9670332  60.6241099  33.0497285
  19.2758863  60.2325998  32.9330559  18.5114745  60.0652180  32.9768965
  15.8169809  67.0874968  24.9519416  15.5970104  66.7972323  25.7446083
  15.5964331  66.4289923  24.4237328  15.7517403  66.9474676  24.9908325
  14.7286756  59.1748284  27.2175118  14.4400005  58.5485756  27.7520845
  15.5970104  59.1168572  27.2839798  14.8147008  59.0735829  27.3066072
  25.5164654  54.3183068  27.5357100  25.1729420  53.5973403  27.8864349
  25.6157696  54.1096919  26.6935458  25.4806697  54.1807271  27.4628780
  17.9837765  68.4604358  23.7350109  18.6361823  67.9280800  23.9641135
  17.2863373  68.1073010  24.1217983  17.9768483  68.3293881  23.8262276
  14.9319029  60.8143535  23.1417483  15.6864997  61.1956574  23.3552945
  14.3389642  61.2654679  23.5964179  14.9555743  60.9372363  23.2400361
  25.9777683  60.7808772  23.0781088  26.5435716  61.4401982  22.9939631
  25.3305586  61.1258470  23.5497490  25.9656439  60.9290713  23.1353844
  17.3925696  52.7706376  38.2674695  16.5825472  53.0764155  38.1564537
  17.8700383  53.4911958  38.3827279  17.3429175  52.9220977  38.2681766
  16.2517256  61.9852097  28.5157598  15.7298010  62.1252388  29.2009463
  16.6391276  61.2262761  28.7059716  16.2320957  61.8937621  28.6458675
  13.2408440  52.0357905  22.5852553  12.9533236  51.6659176  21.8484500
  13.9278908  52.5052761  22.3236258  13.2997337  52.0504875  22.4367629
  22.4484261  63.7247556  22.5018167  22.2070937  62.9915417  22.0945232
  22.6285594  64.2734413  21.8484500  22.4391885  63.6969947  22.3448390
  17.6783582  59.0156116  23.9139089  17.4826364  59.6230850  23.3199392
  17.9017927  58.3224060  23.4330763  17.6818223  59.0033641  23.7555170
  16.0762112  55.9010854  24.0319958  16.7984764  56.0652012  23.5723764
  15.5970104  56.6220518  23.9259297  16.1125842  56.0309083  23.9485572
  24.0355619  52.2374652  29.4116643  23.1966720  52.2635931  29.1754906
  24.1059987  52.8845388  29.9921989  23.9224013  52.3370778  29.4625759
  13.7269728  58.3068926  33.1374098  14.2390825  58.5853179  32.4882857
  13.4406071  59.0458220  33.5036911  13.7604591  58.4571280  33.0963976
  22.4824897  49.1360029  24.1444259  23.1851250  48.9367778  23.6664217
  22.2169086  48.3635972  24.4513102  22.5471530  48.9922995  24.1189700
  27.9113143  57.4442639  26.6977884  27.8247118  57.5998065  27.5512663
  27.4563623  58.0880715  26.3237289  27.8316400  57.5618394  26.7684991
  10.8136635  52.8139118  23.4337834  10.9152771  53.6165279  23.7618809
  11.6092521  52.6126454  23.1360915  10.9464540  52.9025017  23.4373189
  17.2453454  50.3995315  33.1975139  17.0536651  50.4150449  34.0474563
  18.0952050  50.5958989  33.1741794  17.3429176  50.4309666  33.3198434
  11.6300367  52.9286296  31.1758956  11.4885859  52.0770237  31.3003464
  11.9140930  52.9714957  30.3521162  11.6508213  52.8086046  31.0726580
  21.7838959  54.7653386  25.3203444  21.5373673  54.6849137  26.1540233
  22.1124082  53.9806854  25.1265971  21.7960203  54.6379652  25.4150967
  25.6787008  61.4736746  29.1090225  25.5401367  62.1717791  29.6138967
  24.8987006  61.3185402  28.7526407  25.5430235  61.5536912  29.1316499
  24.0165093  57.7733121  35.3612607  24.0113132  56.9012938  35.3655033
  24.7226087  57.9721290  34.8882062  24.1210097  57.6736995  35.2919642
  17.7435986  57.5010105  34.7326427  17.8879362  58.0811313  34.0969537
  18.0911635  57.8786402  35.4376282  17.8163448  57.6430809  34.7425422
  19.9155904  56.7000273  32.5151559  19.1679218  56.8931288  32.1099837
  20.0697429  55.8745493  32.2775680  19.8278331  56.6065385  32.4196964
  16.8163741  65.6912877  31.5987454  16.9653305  65.1315793  30.9460858
  17.5963743  65.7704878  31.9819973  16.9537835  65.6198442  31.5584403
  27.1740381  60.8314999  19.8706724  26.7947189  60.0452137  19.8636014
  26.5106626  61.3801856  19.7278369  27.0198856  60.7959823  19.8487521
  19.3417042  65.8627520  32.8771945  19.2660713  65.1936330  33.4322733
  19.2706901  66.5645308  33.3912611  19.3197649  65.8672427  33.0348793
  20.1557681  50.5950824  33.4046962  20.6130295  51.3274798  33.5319754
  20.2314010  50.1717289  34.1634218  20.2348651  50.6408062  33.5348039
  12.3990672  50.8416644  34.4936406  11.8632861  50.2297002  34.8097173
  12.4608437  51.4164780  35.1470073  12.3286305  50.8363571  34.6371833
  24.6285007  43.7740699  27.2740805  24.7468575  44.2317163  26.5408108
  24.4547182  42.9685960  26.9877023  24.6204178  43.7234471  27.1241739
  19.9987289  64.3828518  23.7095551  20.7637180  64.1138162  23.3878215
  19.8965379  63.8978529  24.4265613  20.0968784  64.2718083  23.7675378
  18.0340059  52.5852928  30.2488786  17.2436133  52.4044388  30.5706122
  18.4300682  51.8079881  30.2319081  17.9756935  52.4440389  30.2941335
  22.5205949  61.4140702  15.6895500  23.2878935  61.4740827  15.2801352
  22.0737258  60.8421144  15.2051818  22.5679377  61.3377278  15.5573210
  23.4183745  60.2195358  27.9748232  22.7428747  59.9880590  28.4761619
  23.4276121  59.6116541  27.3490337  23.3202250  60.0954283  27.9564384
  20.5477889  55.0613187  34.7312285  20.4837030  55.9223144  34.6032422
  20.6875077  54.7445180  33.9307836  20.5593359  55.1413354  34.5940498
  25.4200480  63.0760490  20.2058410  25.5020317  63.8827477  19.8819861
  25.9050222  63.0956450  20.9299184  25.5037637  63.1981153  20.2645309
  19.2296983  57.7545326  28.8728488  18.8059232  57.9549825  28.1367506
  19.0541838  56.9074174  28.9852788  19.1407863  57.6594108  28.7802178
  18.7308676  69.2695839  31.3349945  19.2204607  68.5706629  31.1525610
  18.1592909  68.9719709  31.9226003  18.7193206  69.1222063  31.3950986
  14.5179428  58.2497378  24.3056461  14.6744047  58.1844181  25.1612453
  14.8580021  59.0245930  24.0935140  14.5912663  58.3546576  24.4011055
  21.0558572  57.6255261  23.1749824  21.5974118  57.1225643  23.6388444
  21.3705131  57.5720456  22.3639309  21.1822970  57.5434682  23.1233636
  24.9275680  61.8357909  40.2876736  25.7410545  61.5643058  40.4481869
  24.7670646  61.5365449  39.4836932  25.0245628  61.7512835  40.1922142
  19.2245022  63.0172613  20.4589852  19.2937842  62.1587151  20.5982852
  20.0033477  63.2344494  20.1308876  19.3497872  62.9225477  20.4307009
  22.2047842  52.5191566  33.2272124  22.4189811  51.8802480  32.6735478
  21.5881741  52.9637390  32.7979986  22.1453171  52.4901710  33.0822555
  23.6152510  65.4410314  24.6726345  23.2232301  65.1377029  23.9549211
  23.7705582  66.2779404  24.4831299  23.5806100  65.5194151  24.5382842
  11.0913689  55.4332328  24.6217228  11.4712654  55.8516873  23.9577495
  10.5169054  56.0145784  24.9286071  11.0625014  55.5810187  24.5693969
  24.3686930  54.1280631  34.1655431  23.5563612  53.8206521  34.2468604
  24.8276864  53.6479631  34.7298144  24.3167315  54.0117123  34.2610026
  23.7792184  62.0060303  24.6132376  23.4206839  62.1774946  25.3896408
  23.2930895  62.4673509  24.0560374  23.6550881  62.0999274  24.6457645
  21.5962570  45.6291502  28.2159467  20.7256128  45.6030223  28.1692777
  21.8502912  45.4568694  27.3985313  21.5056131  45.6001645  28.0879604
  18.5680550  57.6859468  17.1532610  18.8573075  58.4624351  17.4276184
  18.6552349  57.1748200  17.8547109  18.6234806  57.7251387  17.2975108
  21.4640437  55.5340703  38.9484134  21.9340068  56.1582819  39.3352008
  21.5102317  54.8657678  39.5077348  21.5408313  55.5275383  39.0884205
  18.6211711  47.6397730  29.6732937  18.1050200  46.9477921  29.7984516
  18.0605640  48.3068507  29.6195536  18.4618224  47.6360988  29.6839003
  20.6903944  48.1790690  31.5025790  20.3035698  48.2039722  32.2839320
  20.2036882  47.6132369  31.0500307  20.5616453  48.0986441  31.5513694
  24.9396924  62.8964199  35.5599577  25.5776644  62.4024395  35.2262033
  24.2971015  62.8241600  34.9751803  24.9391150  62.8123208  35.4241932
  26.6653924  54.7453345  30.1265492  26.2381532  54.6579694  29.3713592
  26.0279977  54.8531121  30.7120336  26.5083531  54.7486005  30.1010934
  20.3561086  45.0657676  33.7936050  20.9854204  45.6017976  33.5157120
  20.5246949  44.9735034  34.6449616  20.4738881  45.1319038  33.8784578
  20.1575001  49.8528870  36.0662462  20.9848430  49.5814019  36.1221076
  20.1782847  50.6489712  36.4226280  20.2827851  49.9308625  36.1277644
  24.9951180  63.5884007  32.2004933  25.7843559  63.2373072  32.3207015
  25.1694778  64.4020396  31.9381567  25.1371462  63.6569864  32.1792801
  14.7344491  56.9992733  29.2532722  13.8932497  56.8996607  29.4611616
  14.9434499  57.7688213  29.6047043  14.6409183  57.0984776  29.3360037
  12.2120058  54.6212270  27.0817473  11.8176756  54.6955282  26.3067583
  11.6560175  55.0070216  27.6325835  12.0722870  54.6894045  27.0485133
  23.8485005  47.5993564  26.7621352  24.0534598  47.5315872  27.6078349
  23.5211429  48.4052385  26.6942529  23.8300253  47.7079504  26.8781007
  18.5461156  54.9274132  28.5030320  18.2424293  54.3730121  29.1040727
  17.8440576  55.1066342  28.0158354  18.3977366  54.8718915  28.5200025
  17.6027253  52.2374652  23.0675022  17.8786987  51.5193565  22.6552589
  18.2025922  52.8359572  22.8596128  17.7320517  52.2195023  22.9755783
  16.6079507  62.1423853  33.2102418  16.4999862  62.1525915  34.0764476
  16.8175288  62.9678633  33.0207371  16.6229618  62.2664928  33.3106509
  27.1018692  48.1525328  26.2424117  26.4893006  48.6395730  26.6277849
  27.1982867  47.4768819  26.7861768  27.0256590  48.1243637  26.3802975
  21.1037773  49.9088169  21.3421617  21.5581520  50.0798730  22.0669461
  21.5777819  49.2956280  20.9419392  21.2406093  49.8439055  21.3895378
  14.6253299  59.3936495  30.6724355  14.0341232  60.0345994  30.6427370
  15.3874322  59.8174113  30.6455655  14.6501559  59.5512334  30.6639502
  15.0213922  50.5538493  31.3392373  15.4815403  50.6277423  32.0767496
  15.0670028  51.3519747  30.9892194  15.0964477  50.6832640  31.3965129
  16.6697271  51.2205188  35.9064400  16.2782836  50.5738535  36.3420178
  16.8383134  51.8116623  36.5258655  16.6368182  51.2119456  36.0627106
  30.7443720  59.2242265  31.6701633  30.8026844  59.6728914  32.4161610
  30.1110188  59.6341078  31.2331713  30.6595015  59.3516000  31.7154182
  24.3842815  64.8445807  28.1056380  24.1862504  65.3336621  27.4112591
  23.7630526  65.0487048  28.6840513  24.2630379  64.9462345  28.0879603
  18.4450793  56.6130704  22.4466624  19.1892838  57.0004980  22.6849574
  18.5911489  55.7688129  22.6107112  18.5761378  56.5461177  22.5060594
  20.3630369  48.4080963  27.4798485  19.5166414  48.5803770  27.3539835
  20.3601501  47.6030306  27.8164314  20.2377519  48.3141992  27.5109612
  21.4328669  52.1856177  28.3460543  20.9588623  51.6597939  28.8565854
  21.8046805  51.6385650  27.7775405  21.4178558  52.0272174  28.3375690
  11.8101699  54.1827684  33.7144089  12.6727312  54.0823393  33.6281419
  11.4793482  53.6022393  33.1529661  11.8886896  54.0819311  33.6189495
  27.6965400  57.2458553  29.7567324  27.4563623  56.4064968  29.7609750
  28.1757407  57.3258719  30.4808097  27.7317583  57.1339952  29.8642126
  23.3612169  53.0792732  21.4086297  22.8335187  53.1621476  20.7192006
  23.8207877  53.8210603  21.4050942  23.3514019  53.2013394  21.3060992
  29.6970587  54.0260010  27.7096583  29.4580357  53.9855844  26.8717367
  29.8604488  54.8731162  27.8362304  29.6860890  54.1452095  27.6050065
  26.3016617  58.4109959  33.6401628  27.0250816  57.9582486  33.4612648
  26.0366579  58.6914625  32.8573956  26.3697890  58.3860928  33.4980343
  15.1703485  53.0070133  30.3754507  14.5456555  53.0188525  29.7680460
  14.8349080  53.4830308  31.0245747  15.0288977  53.0788650  30.3811076
  15.3545234  51.3495251  16.4327192  15.0058038  52.0014977  16.8958741
  14.8741680  51.3352364  15.7051063  15.2315478  51.4438305  16.3938283
  11.8829161  61.0670593  31.8158271  11.3529085  60.3763032  31.8653246
  12.1554254  61.0580778  30.9870980  11.8453883  60.9637725  31.7005687
  22.9149251  61.6496295  20.5395954  23.6383450  62.1154408  20.3960527
  22.4749842  61.7169905  19.7893551  22.9564944  61.7280132  20.4080735
  22.0835406  58.5093837  31.7896643  21.4692400  57.9651888  32.0845278
  22.6002691  57.9958074  31.3102459  22.0691069  58.3530247  31.7620871
  21.3231704  59.5798108  29.5240942  20.8959312  58.9547826  29.0906377
  21.3156648  59.2973029  30.3499949  21.2590845  59.4450888  29.5820769
  14.4394231  54.6163281  32.5929376  14.5987717  53.8606605  32.9981098
  14.2587124  55.1654220  33.2470113  14.4359590  54.5857094  32.7492082
  22.3814534  46.7824516  33.1480165  21.8855095  46.9788190  32.4571732
  23.1383596  47.1817184  32.9768967  22.4201358  46.8702250  33.0200302
  19.6517413  50.4566862  29.7383476  19.6759900  49.9226974  29.0496256
  19.9028887  49.9484171  30.4009066  19.6927332  50.3027766  29.7348120
  15.9318735  49.1837680  29.1189220  15.9717107  49.6846887  29.8323927
  15.1068400  49.2748074  28.8495143  15.8158261  49.2719497  29.1839758
  18.1148348  58.7498420  37.2209515  17.2643979  58.8870135  37.3567159
  18.2776476  58.0162199  37.6657216  18.0132212  58.6612521  37.3065114
  17.3533099  55.6998190  31.4163119  16.5225029  55.8672008  31.2098367
  17.2984616  55.3234141  32.2012004  17.2222514  55.6687921  31.5011647
  15.1616882  49.1907083  37.0519530  15.7869586  48.6469216  37.3248962
  14.7067362  48.7102001  36.4827320  15.1865143  49.0396564  37.0081123
  15.7269143  53.9753782  21.9453237  15.8672104  54.4726246  22.6481878
  16.2251676  53.2740076  22.0867450  15.8210224  53.9455760  22.0704816
  15.7569365  54.8420893  19.2745813  16.3914445  55.4381318  19.2095275
  15.8394976  54.5424350  20.0891684  15.8625916  54.8861801  19.3848900
  17.3348348  50.7734868  19.2491255  17.6564189  50.2937951  18.5950518
  17.5975292  51.5834514  19.0582067  17.4214373  50.8224766  19.1246748
  20.5645321  61.7953742  32.7690072  20.0570412  62.3489589  33.2130702
  20.2671967  61.8562032  31.9508846  20.4450206  61.8860054  32.7138528
  22.7307503  50.1607062  31.6114735  23.1562574  49.7079588  30.9998261
  22.1164496  49.6067133  31.8879522  22.7036148  50.0121038  31.5619760
  12.2622353  57.0388733  22.5435359  12.7714582  57.6353241  22.9246665
  12.7356625  56.7714707  21.8611779  12.4065729  57.0874549  22.4989882
  23.1753101  65.7117000  20.6994015  22.4582411  65.5377862  20.2341252
  23.8259839  65.4769572  20.1669501  23.1654952  65.6512793  20.5523233
  21.1701726  46.6322162  25.0205312  20.5270044  46.4819808  25.5890450
  20.8301133  46.3864507  24.2554416  21.0246803  46.5734284  24.9908327
  25.7601072  54.5881589  24.4435320  25.0892262  55.1311291  24.3148386
  26.4540822  55.0576444  24.2017015  25.7629940  54.7379860  24.3890848
  19.8087806  66.7278301  29.6747078  19.5853460  65.9697130  30.0431105
  19.3197649  66.7576322  28.9527518  19.7031255  66.6200525  29.6223819
  25.9229200  51.0437472  27.3525693  26.2756810  50.6167195  28.0271492
  25.0644001  50.9588316  27.4826770  25.8478644  50.9682213  27.4720704
  14.6212885  53.6744992  25.4108540  13.9024874  54.0909125  25.6781403
  14.9925247  54.2399231  24.8600178  14.5704816  53.8194273  25.3691347
  23.9212466  54.3072841  31.3010536  23.9010393  54.1256136  32.1545314
  23.9691666  55.1784859  31.2770119  23.9247107  54.4089379  31.4233830
  21.8658795  60.8960033  37.2259012  21.8254650  60.2509710  36.6404168
  22.6782114  60.8396650  37.5384424  21.9801949  60.7919000  37.1855961
  18.4566263  66.9478759  27.1284163  18.0426662  66.2852889  26.7388005
  19.1413637  67.0956618  26.6079857  18.4964635  66.8719417  26.9940660
  21.8231557  66.1068844  27.8807780  21.4247840  66.2171114  27.1128600
  21.2082777  66.3150910  28.4634339  21.6730446  66.1542412  27.8539079
  20.3959459  52.7142992  20.7481919  19.8024298  53.0359988  20.1966486
  20.4334737  51.8684087  20.5403026  20.3133848  52.6367320  20.6364691
  27.3553260  46.1655884  28.2810006  26.8484124  45.4585024  28.2131183
  28.1520694  45.8349073  28.4111082  27.3980499  46.0129036  28.2909001
  23.2717276  52.6722496  24.1783670  23.0430969  52.6955198  23.3362028
  23.5315352  51.8479963  24.2978680  23.2763464  52.5538576  24.0708867
  17.5536504  54.5256969  33.7808770  17.0415407  53.9178152  34.1393801
  17.3816000  55.2413562  34.2482746  17.4526141  54.5420269  33.9024993
  12.4002219  52.9694545  36.4311132  12.2304809  53.6295920  35.8859338
  11.9568169  53.1801106  37.1523621  12.3101552  53.0980527  36.4572761
  16.3262038  51.2099043  25.4737865  16.8019404  51.5716123  24.8388046
  15.8250638  51.8655510  25.7538008  16.3227397  51.3593231  25.4214606
  29.5573400  60.6820811  21.2650870  29.9407006  61.4312167  21.4948967
  28.7617513  60.9286630  21.0062859  29.4967182  60.8290505  21.2608444
  21.4305574  52.4481214  36.2211025  21.9877005  52.2195024  35.5889491
  21.1066639  53.2086880  35.9446238  21.4651985  52.5265051  36.0867522
   9.3004283  55.8741410  31.6899621   8.7531003  55.2042056  31.8080490
  10.0896661  55.5071258  31.7543089   9.3356467  55.7206397  31.7168322
  19.1488692  55.5348867  37.1863032  19.9000019  55.8500544  37.5002587
  19.3411268  55.3328038  36.3596954  19.2880106  55.5516249  37.1106428
  18.3688691  53.3540242  18.8411249  18.7487656  53.3719872  18.0562364
  17.6281287  53.7994231  18.7202097  18.3157529  53.4222017  18.7074817
  25.9973982  51.6622434  24.4286828  25.9968208  51.5071090  25.2871104
  25.7930162  52.5085421  24.3728214  25.9673760  51.7643054  24.5474767
   8.0591253  55.0862218  28.8445644   7.8813014  54.6338827  29.5700560
   7.7710275  55.8888380  29.0284122   7.9904206  55.1384776  28.9789147
  23.7214834  56.3419935  28.0823035  24.2168499  55.6242931  28.0427055
  22.9114610  56.0390733  27.9677522  23.6758727  56.1917582  28.0596761
  19.1673445  60.1917749  20.2320039  18.3584768  59.8684422  20.1853349
  19.6748354  59.4850971  20.1648288  19.1223112  60.0399065  20.2150334
   9.7963723  57.6189942  25.9567404   8.9309242  57.6075632  25.8450175
   9.8962539  57.4320165  26.8038543   9.6837890  57.5896003  26.0656348
  25.7866653  59.0923623  30.7700164  26.2121724  58.5698045  30.2170589
  25.4223573  59.6904460  30.2488787  25.7953255  59.1033850  30.6109173
  15.4220733  67.3887841  29.5297509  15.7367292  68.2024229  29.5375291
  15.8314146  67.0038059  30.1979668  15.5288831  67.4516543  29.6301601
  22.3745252  62.8057887  27.1001321  22.8456430  63.5198150  27.2691306
  22.7105431  62.2056637  27.6361191  22.4940367  62.8229352  27.2033697
  24.4622237  64.4159201  39.2793393  24.5719202  63.6267761  39.6350140
  24.7913133  64.3265137  38.4767731  24.5274643  64.2865054  39.2135784
  19.2914747  47.5785358  34.0559416  19.4242653  46.7816351  34.3840391
  19.6759900  48.1051761  34.6357691  19.3671076  47.5385275  34.1902919
  23.0119199  62.5975821  33.8629014  22.4640145  61.9733705  33.5949079
  23.4732227  62.7870093  33.1473093  22.9986408  62.5334872  33.7179445
  22.3647102  44.5015684  30.6540509  21.5593066  44.3913414  30.9708347
  22.2353838  44.6028140  29.7970375  22.2267235  44.4999354  30.5748549
  25.8213063  50.6661176  31.2480206  25.2376052  51.1670382  30.8357773
  26.1417357  50.1590732  30.6144529  25.7826238  50.6653011  31.0938713
  18.3607862  49.5801771  21.5238881  19.1823556  49.7500084  21.2820576
  17.8977513  49.7349032  20.8005178  18.4139024  49.6283504  21.3810525
  16.9503194  47.5744533  32.3037310  17.4947607  47.2335660  32.8941651
  17.0040130  48.4329994  32.4458594  17.0392313  47.6499792  32.4119183
  12.7633753  61.3360949  29.1776117  13.3678610  61.2956783  28.5489938
  12.5561065  62.1832101  29.2080173  12.8222650  61.4548951  29.0892234
  22.5777525  63.6026894  30.3938355  23.3975899  63.4589860  30.6554650
  22.2971602  64.2273093  30.9354793  22.6574268  63.6737246  30.5126294
   7.9985035  60.3195567  29.0475041   7.9009313  59.5091838  29.3565097
   8.7813905  60.2987360  28.6621309   8.1001171  60.1962657  29.0361904
  39.0491175  71.2591746  23.3581231  39.0185180  72.1136383  23.5299501
  39.6472524  70.9587038  23.9167375  39.1328333  71.3408242  23.4656034
  32.2490860  70.3467397  28.1134162  31.3928756  70.5075895  28.1643278
  32.2958514  69.4759461  28.1339223  32.1289972  70.2418199  28.1240228
  35.5584577  76.6153922  37.7194618  36.2651344  76.1205953  37.8481552
  35.7472512  77.0563004  36.9897276  35.6912482  76.6072273  37.6303663
  32.0856960  80.3055484  19.3056940  31.7508328  80.9832406  18.8701162
  32.5983830  79.9160795  18.7173812  32.1122541  80.3480062  19.1543732
  35.0942681  72.4059441  30.7565813  35.6398641  73.0844527  30.8159783
  35.0359557  72.2646902  29.8967395  35.1658595  72.4851442  30.6377874
  28.2116756  79.8948507  26.1434166  28.3127119  79.0848861  26.4531293
  27.6158501  79.8005453  25.5133844  28.1389295  79.7613535  26.0960404
  36.8707750  73.8344048  21.6299541  36.7547276  74.5851734  22.0591679
  37.6663636  73.5768001  21.8795628  36.9712339  73.9078895  21.7303633
  21.4081800  75.9168793  25.7686499  21.1731985  75.0836446  25.6618768
  21.5467441  76.1973459  24.9547700  21.3937463  75.8352297  25.6328854
  23.7071888  68.0854524  28.6670807  23.0876919  67.4947171  28.4980822
  23.6055751  68.6765959  28.0335130  23.6009563  68.0858607  28.5475797
  28.7538075  77.8238071  22.9168883  29.0753916  78.3643278  22.3130192
  29.4010172  77.2534842  23.0491173  28.8964130  77.8197246  22.8475919
  30.8039783  69.8254066  23.0003270  31.5019948  70.0042193  23.4924733
  31.1192116  69.3024405  22.3773660  30.9535121  69.7747838  22.9805280
  23.4341021  71.6306806  30.9114376  23.3099718  72.2169251  31.5464195
  24.0859305  71.1367001  31.2126651  23.5114670  71.6445610  31.0500305
  30.9927719  76.2124511  22.9883062  31.4321354  75.6041611  23.4337834
  30.8432382  75.8331884  22.2168527  31.0349184  76.0662982  22.9402229
  28.4599362  74.8068523  30.1901887  29.1048364  74.3140966  29.8712836
  28.7001139  74.9493309  31.0167965  28.5909947  74.7545965  30.2651420
  30.9985453  77.6523429  29.8408780  31.2808696  76.8574834  29.6195536
  31.7271613  78.1304016  29.8613841  31.1475017  77.6058025  29.8111795
  28.9766647  65.1946462  27.0824545  28.6469977  65.6457606  26.4128244
  28.3011649  65.1162626  27.6297551  28.8277083  65.2497598  27.0647768
  34.5937055  74.5651692  19.9413831  34.5088350  75.4212659  20.0863400
  35.0821438  74.2896016  20.6095990  34.6525953  74.6509014  20.0615912
  36.1843055  61.1831985  25.3274155  35.8696496  61.8735464  25.7594578
  35.6669996  61.1276768  24.6259656  36.0607525  61.2766874  25.2871105
  35.5255488  71.1836486  21.4411566  34.9966960  71.3996120  22.1008872
  36.0480508  71.8772625  21.3612535  35.5243941  71.3179623  21.5267165
  40.9803541  76.7582791  26.8144610  40.1501245  76.9693434  26.9778027
  40.9312794  75.9319845  26.5386894  40.8510277  76.6672397  26.7981976
  27.4155096  75.0799703  20.2419034  26.8312312  75.5849734  20.6484898
  27.0125191  74.8542090  19.5015626  27.2694400  75.1207951  20.1924059
  29.0413279  79.5886645  29.6492520  28.5240221  79.2294060  29.0453828
  29.7387670  79.0648819  29.6598586  29.0678860  79.4584333  29.5622779
  32.6976871  80.0381459  35.6108693  32.7860217  79.8507599  36.4586903
  33.1266583  79.3918889  35.2113540  32.7738973  79.9144467  35.6780445
  30.2647331  79.3212619  34.5926355  29.7018166  78.9085229  35.1166016
  31.0268354  79.2465525  35.0119499  30.2941779  79.2490019  34.7319356
  31.8732311  71.3265355  18.7187955  32.1128314  71.5343339  17.9063298
  32.1948152  70.5222864  18.8276899  31.9569469  71.2379456  18.6148508
  27.1822601  63.2558751  22.5647493  27.9368569  63.6237068  22.3264543
  27.0050136  63.6298305  23.3326672  27.2677079  63.3656939  22.6432381
  40.4757500  69.4053191  30.6095032  39.6385921  69.4755378  30.8442626
  40.4445731  69.4077686  29.7369334  40.3475782  69.4163418  30.5154580
  26.8722229  71.5486227  36.3243400  27.0442732  71.4392122  37.1728682
  27.4091586  72.1940632  36.0874593  26.9767233  71.6278229  36.4148497
  25.5379666  65.6629070  19.2625606  25.3555239  65.8800951  18.4366598
  26.4005279  65.7768083  19.3184220  25.6384255  65.7118968  19.1480093
  25.1494098  77.5016992  26.7048593  25.9882997  77.7339925  26.7522355
  25.1805867  76.6321304  26.6355629  25.2775815  77.4073939  26.7013238
  25.7746801  77.9217867  31.0061899  26.3145026  77.7788998  31.6765271
  25.0916747  78.3214618  31.3745925  25.7538954  77.9597538  31.1596321
  31.2179385  62.6655481  22.2974629  31.9465545  62.4871436  21.8512786
  31.3074278  63.5073560  22.5081807  31.3386047  62.7639359  22.2628147
  35.1987685  73.6008868  26.2006923  35.9545201  74.0340382  26.2395832
  35.3050010  72.9513638  26.7741559  35.3257856  73.5686352  26.2904949
  38.2367857  77.4282145  26.9509326  37.8003088  77.4318888  27.7068298
  37.9030772  78.1087644  26.5188904  38.1230477  77.5294601  26.9990159
  32.8096930  79.4690478  38.2752477  33.5937347  79.5821326  38.6408219
  32.6093525  78.6431615  38.4711162  32.8962956  79.3637197  38.3586863
  21.1783946  74.1418158  31.1596320  20.9122361  73.3257275  31.3187311
  21.1922510  74.1871314  30.2891836  21.1408668  74.0275063  31.0549802
  38.1565340  64.4695973  29.1938754  38.7991248  64.5394078  29.7800669
  38.4088360  63.8025196  28.6918296  38.2887472  64.3822322  29.2066033
  25.0841693  68.9403243  17.7748079  24.3699870  68.6541422  18.1870511
  25.5685661  69.2799868  18.4154466  25.0501056  68.9484892  17.9303714
  25.9282552  67.6796536  33.8063328  25.2354349  67.2093516  34.0524060
  26.5442879  67.4534841  34.3805035  25.9167082  67.5763668  33.9272481
  32.9667324  81.3800580  31.9218932  32.1682569  81.1400080  32.1792801
  33.4153335  81.4314973  32.6685980  32.9141935  81.3522971  32.0703856
  41.3712203  74.1463065  25.8428964  42.0328637  73.5853734  25.7424872
  40.7303615  73.6515096  26.1681655  41.3741070  73.9899474  25.8761304
  32.2589011  77.4433196  18.1509887  32.6740159  77.1118220  17.4594383
  31.4280940  77.2102099  18.0230023  32.1977019  77.3604452  18.0300734
  21.5877359  74.9276938  28.4408065  21.4052933  74.9023824  27.5880357
  22.3227028  75.3975875  28.4796973  21.6691423  74.9938300  28.3205983
  37.6577034  75.1628447  25.5840952  37.8932623  75.3073646  24.7567803
  37.8066597  75.9270855  25.9772466  37.7142837  75.2967502  25.5204556
  24.6523111  71.6461940  34.9490173  25.3763083  71.6314971  35.4355068
  24.7539248  72.3557296  34.4512142  24.7741320  71.7486644  34.9468960
  39.4867490  74.0030113  23.4210556  39.8175707  74.5357754  22.8150651
  40.0600578  74.0569001  24.0772507  39.6201169  74.0899682  23.4288338
  32.0268060  75.1261025  39.8139120  31.2341041  75.4404537  39.9991740
  32.1416988  75.3412493  38.9759905  31.9263471  75.2044862  39.7177455
  34.6999379  71.8495016  24.1034136  34.7946234  72.5884310  24.5573762
  34.0758223  71.4212492  24.5368701  34.6208409  71.8956337  24.2342284
  32.9551853  75.0281229  34.7524417  33.5290715  74.3908473  34.9072981
  32.8766657  75.0285311  33.8834075  33.0285088  74.9346340  34.6470828
  21.5548270  71.8070438  28.5907131  22.1321772  71.6706889  29.2299377
  20.8562331  71.3506222  28.8452716  21.5369291  71.7192704  28.7229421
  34.9522401  73.6943756  17.3371088  34.8702563  73.7645943  18.2026075
  35.5902121  74.2573500  17.1454829  35.0342238  73.7882727  17.4361038
  28.3115572  73.4604494  26.8045615  28.0534816  72.6276229  26.7776914
  28.3664055  73.6862107  25.9638115  28.2815350  73.3702265  26.6765751
  33.3916622  65.5632945  26.9049707  32.6872949  65.0742130  27.0633626
  33.4401596  65.5755419  26.0338152  33.2946674  65.4922593  26.7989047
  27.2850284  71.0142256  27.2910509  26.7099875  71.1734425  27.9274470
  26.9085960  70.3777665  26.8278960  27.1453096  70.9440069  27.3165068
  30.9523573  69.4865606  32.1502888  30.5638005  69.0619823  31.4955079
  30.2878271  69.7347755  32.6579914  30.7970500  69.4604327  32.1290756
  40.5946842  69.2440610  24.9250718  40.3383407  68.4320552  24.7348601
  41.4376156  69.2518177  24.6980905  40.6812867  69.1252608  24.8635535
  17.0307103  70.6582331  25.3054950  17.1167355  70.2814199  26.0868480
  17.6582900  70.2842777  24.8274908  17.1363654  70.5467813  25.3500427
  34.7749934  63.1840234  29.6626872  35.1560446  62.5018405  30.0494746
  33.9713218  62.8949836  29.4802536  34.7126396  63.0407283  29.6930928
  32.0562511  73.7164210  20.3479695  32.8703150  74.0079103  20.2362466
  31.9921652  73.0624073  19.7737988  32.1665250  73.6629405  20.2468532
  38.2772001  76.3990206  34.7609270  38.0410638  75.5678271  34.6421331
  38.9215230  76.3475814  35.3464115  38.3366672  76.2687894  34.8295164
  27.9270419  77.1885728  25.4752007  28.5644366  76.9497475  26.0203800
  28.3525491  77.3922887  24.7405167  28.0846585  77.1836738  25.4469164
  28.5673234  72.4088017  19.8126896  28.9518387  72.1895724  20.5643441
  28.3184855  73.2350963  19.9427973  28.5875307  72.4986164  19.9427973
  28.7341775  65.6894433  39.5289480  28.4195216  66.4593995  39.2659043
  28.4131707  65.1264689  38.9441707  28.6400694  65.7204701  39.4030830
  39.3008422  76.1834655  30.8237565  38.9954239  76.9162712  31.1850880
  38.5814637  75.7772585  30.5430351  39.1495764  76.2316388  30.8350702
  30.3091891  77.6658150  27.1545793  30.3830899  77.5033322  28.0087643
  31.1261397  77.8548340  26.9106275  30.4408250  77.6694893  27.2443819
  45.0010214  72.8227656  30.1505909  44.9334714  72.8423615  29.2808496
  44.9865876  73.6657983  30.3761580  44.9888970  72.9501390  30.0558386
  24.0697648  78.0116013  24.1840237  23.2435765  78.2577750  24.0574515
  24.1309639  77.9328094  25.0502295  23.9571815  78.0360962  24.2929181
  26.2873672  64.0784954  25.1435677  25.4196097  64.1507554  25.2093286
  26.5748876  64.8807033  25.3323652  26.2013420  64.2079101  25.1810443
  35.4106560  64.2262813  33.4746999  36.1560152  64.0372624  33.0610424
  34.9943865  64.7521051  32.9160855  35.4591535  64.2764959  33.3311572
  42.7868831  71.5972042  28.4252503  43.3376753  70.9640111  28.6649596
  42.7712947  72.1287435  29.1168008  42.8654028  71.5820990  28.5631362
  29.4391222  75.4310639  32.9712397  28.9402916  76.1426407  33.0497285
  30.2491446  75.7511306  32.9330559  29.4847329  75.5837488  32.9768965
  25.7019340  74.6933592  27.2175118  25.4132588  74.0671064  27.7520845
  26.5702688  74.6353880  27.2839798  25.7879592  74.5921136  27.3066072
  36.4897237  69.8368376  27.5357100  36.1462003  69.1158711  27.8864349
  36.5890280  69.6282227  26.6935458  36.4539280  69.6992579  27.4628780
  25.9051613  76.3328843  23.1417483  26.6597581  76.7141882  23.3552945
  25.3122226  76.7839987  23.5964179  25.9288327  76.4557671  23.2400361
  36.9510266  76.2994080  23.0781088  37.5168299  76.9587290  22.9939631
  36.3038170  76.6443778  23.5497490  36.9389023  76.4476021  23.1353844
  28.3658280  68.2891684  38.2674695  27.5558056  68.5949463  38.1564537
  28.8432967  69.0097266  38.3827279  28.3161759  68.4406285  38.2681766
  24.2141024  67.5543213  22.5852553  23.9265819  67.1844484  21.8484500
  24.9011492  68.0238069  22.3236258  24.2729921  67.5690183  22.4367629
  33.4216845  79.2432864  22.5018167  33.1803520  78.5100725  22.0945232
  33.6018177  79.7919721  21.8484500  33.4124469  79.2155255  22.3448390
  28.6516165  74.5341424  23.9139089  28.4558948  75.1416158  23.3199392
  28.8750511  73.8409368  23.4330763  28.6550806  74.5218949  23.7555170
  27.0494695  71.4196162  24.0319958  27.7717347  71.5837320  23.5723764
  26.5702688  72.1405826  23.9259297  27.0858426  71.5494391  23.9485572
  35.0088203  67.7559960  29.4116643  34.1699303  67.7821239  29.1754906
  35.0792570  68.4030696  29.9921989  34.8956596  67.8556086  29.4625759
  24.7002312  73.8254234  33.1374098  25.2123409  74.1038487  32.4882857
  24.4138655  74.5643528  33.5036911  24.7337175  73.9756588  33.0963976
  33.4557481  64.6545337  24.1444259  34.1583834  64.4553086  23.6664217
  33.1901670  63.8821280  24.4513102  33.5204113  64.5108303  24.1189700
  38.8845727  72.9627947  26.6977884  38.7979701  73.1183373  27.5512663
  38.4296207  73.6066023  26.3237289  38.8048983  73.0803702  26.7684991
  21.7869218  68.3324426  23.4337834  21.8885355  69.1350587  23.7618809
  22.5825105  68.1311762  23.1360915  21.9197124  68.4210325  23.4373189
  28.2186037  65.9180623  33.1975139  28.0269234  65.9335757  34.0474563
  29.0684633  66.1144297  33.1741794  28.3161759  65.9494974  33.3198434
  22.6032950  68.4471604  31.1758956  22.4618442  67.5955545  31.3003464
  22.8873514  68.4900265  30.3521162  22.6240796  68.3271354  31.0726580
  32.7571543  70.2838694  25.3203444  32.5106257  70.2034445  26.1540233
  33.0856666  69.4992162  25.1265971  32.7692786  70.1564960  25.4150967
  36.6519591  76.9922054  29.1090225  36.5133951  77.6903099  29.6138967
  35.8719589  76.8370710  28.7526407  36.5162818  77.0722220  29.1316499
  34.9897677  73.2918429  35.3612607  34.9845715  72.4198245  35.3655033
  35.6958670  73.4906598  34.8882062  35.0942681  73.1922303  35.2919642
  28.7168570  73.0195413  34.7326427  28.8611946  73.5996621  34.0969537
  29.0644219  73.3971710  35.4376282  28.7896031  73.1616117  34.7425422
  30.8888487  72.2185581  32.5151559  30.1411801  72.4116596  32.1099837
  31.0430013  71.3930801  32.2775680  30.8010915  72.1250693  32.4196964
  38.1472964  76.3500307  19.8706724  37.7679773  75.5637445  19.8636014
  37.4839210  76.8987164  19.7278369  37.9931439  76.3145131  19.8487521
  31.1290264  66.1136132  33.4046962  31.5862878  66.8460106  33.5319754
  31.2046593  65.6902597  34.1634218  31.2081234  66.1593370  33.5348039
  23.3723256  66.3601952  34.4936406  22.8365445  65.7482310  34.8097173
  23.4341020  66.9350088  35.1470073  23.3018888  66.3548879  34.6371833
  35.6017590  59.2926007  27.2740805  35.7201158  59.7502470  26.5408108
  35.4279766  58.4871268  26.9877023  35.5936761  59.2419779  27.1241739
  30.9719873  79.9013826  23.7095551  31.7369764  79.6323470  23.3878215
  30.8697962  79.4163837  24.4265613  31.0701368  79.7903391  23.7675378
  29.0072642  68.1038236  30.2488786  28.2168717  67.9229696  30.5706122
  29.4033265  67.3265188  30.2319081  28.9489518  67.9625697  30.2941335
  33.4938533  76.9326010  15.6895500  34.2611518  76.9926135  15.2801352
  33.0469842  76.3606452  15.2051818  33.5411960  76.8562586  15.5573210
  34.3916329  75.7380666  27.9748232  33.7161330  75.5065898  28.4761619
  34.4008705  75.1301849  27.3490337  34.2934833  75.6139591  27.9564384
  31.5210473  70.5798495  34.7312285  31.4569614  71.4408451  34.6032422
  31.6607660  70.2630488  33.9307836  31.5325943  70.6598662  34.5940498
  36.3933063  78.5945798  20.2058410  36.4752901  79.4012785  19.8819861
  36.8782805  78.6141758  20.9299184  36.4770221  78.7166461  20.2645309
  30.2029566  73.2730634  28.8728488  29.7791816  73.4735133  28.1367506
  30.0274422  72.4259482  28.9852788  30.1140447  73.1779416  28.7802178
  25.4912011  73.7682686  24.3056461  25.6476631  73.7029489  25.1612453
  25.8312605  74.5431238  24.0935140  25.5645246  73.8731884  24.4011055
  32.0291156  73.1440569  23.1749824  32.5706701  72.6410950  23.6388444
  32.3437715  73.0905764  22.3639309  32.1555553  73.0619990  23.1233636
  35.9008263  77.3543217  40.2876736  36.7143129  77.0828366  40.4481869
  35.7403230  77.0550757  39.4836932  35.9978212  77.2698143  40.1922142
  30.1977606  78.5357921  20.4589852  30.2670426  77.6772459  20.5982852
  30.9766061  78.7529802  20.1308876  30.3230456  78.4410785  20.4307009
  33.1780425  68.0376874  33.2272124  33.3922395  67.3987788  32.6735478
  32.5614325  68.4822698  32.7979986  33.1185755  68.0087018  33.0822555
  34.5885093  80.9595622  24.6726345  34.1964885  80.6562337  23.9549211
  34.7438166  81.7964712  24.4831299  34.5538683  81.0379459  24.5382842
  22.0646273  70.9517636  24.6217228  22.4445238  71.3702181  23.9577495
  21.4901638  71.5331092  24.9286071  22.0357598  71.0995495  24.5693969
  35.3419513  69.6465939  34.1655431  34.5296195  69.3391829  34.2468604
  35.8009448  69.1664939  34.7298144  35.2899898  69.5302431  34.2610026
  34.7524768  77.5245611  24.6132376  34.3939423  77.6960254  25.3896408
  34.2663479  77.9858817  24.0560374  34.6283465  77.6184582  24.6457645
  32.5695154  61.1476810  28.2159467  31.6988712  61.1215531  28.1692777
  32.8235495  60.9754002  27.3985313  32.4788714  61.1186953  28.0879604
  29.5413133  73.2044776  17.1532610  29.8305658  73.9809659  17.4276184
  29.6284932  72.6933508  17.8547109  29.5967390  73.2436695  17.2975108
  32.4373021  71.0526010  38.9484134  32.9072652  71.6768127  39.3352008
  32.4834901  70.3842986  39.5077348  32.5140897  71.0460691  39.0884205
  29.5944295  63.1583038  29.6732937  29.0782783  62.4663229  29.7984516
  29.0338223  63.8253815  29.6195536  29.4350808  63.1546296  29.6839003
  31.6636528  63.6975998  31.5025790  31.2768281  63.7225029  32.2839320
  31.1769465  63.1317677  31.0500307  31.5349037  63.6171749  31.5513694
  35.9129507  78.4149507  35.5599577  36.5509228  77.9209703  35.2262033
  35.2703599  78.3426907  34.9751803  35.9123734  78.3308515  35.4241932
  37.6386508  70.2638653  30.1265492  37.2114116  70.1765002  29.3713592
  37.0012560  70.3716428  30.7120336  37.4816115  70.2671313  30.1010934
  31.3293670  60.5842983  33.7936050  31.9586788  61.1203284  33.5157120
  31.4979532  60.4920342  34.6449616  31.4471464  60.6504346  33.8784578
  31.1307585  65.3714178  36.0662462  31.9581014  65.0999327  36.1221076
  31.1515431  66.1675020  36.4226280  31.2560435  65.4493932  36.1277644
  35.9683764  79.1069315  32.2004933  36.7576142  78.7558380  32.3207015
  36.1427362  79.9205704  31.9381567  36.1104046  79.1755172  32.1792801
  25.7077074  72.5178041  29.2532722  24.8665081  72.4181915  29.4611616
  25.9167082  73.2873521  29.6047043  25.6141767  72.6170084  29.3360037
  23.1852641  70.1397578  27.0817473  22.7909339  70.2140590  26.3067583
  22.6292758  70.5255524  27.6325835  23.0455454  70.2079353  27.0485133
  34.8217588  63.1178872  26.7621352  35.0267182  63.0501180  27.6078349
  34.4944012  63.9237693  26.6942529  34.8032836  63.2264812  26.8781007
  29.5193739  70.4459440  28.5030320  29.2156877  69.8915428  29.1040727
  28.8173160  70.6251650  28.0158354  29.3709949  70.3904223  28.5200025
  28.5759836  67.7559960  23.0675022  28.8519571  67.0378873  22.6552589
  29.1758506  68.3544880  22.8596128  28.7053101  67.7380331  22.9755783
  27.5812090  77.6609161  33.2102418  27.4732445  77.6711223  34.0764476
  27.7907872  78.4863941  33.0207371  27.5962201  77.7850236  33.3106509
  38.0751276  63.6710636  26.2424117  37.4625590  64.1581038  26.6277849
  38.1715451  62.9954127  26.7861768  37.9989174  63.6428945  26.3802975
  32.0770357  65.4273477  21.3421617  32.5314103  65.5984038  22.0669461
  32.5510403  64.8141588  20.9419392  32.2138677  65.3624363  21.3895378
  25.5985882  74.9121803  30.6724355  25.0073816  75.5531301  30.6427370
  26.3606906  75.3359421  30.6455655  25.6234143  75.0697642  30.6639502
  25.9946505  66.0723801  31.3392373  26.4547987  66.1462730  32.0767496
  26.0402612  66.8705055  30.9892194  26.0697060  66.2017948  31.3965129
  27.6429855  66.7390496  35.9064400  27.2515420  66.0923843  36.3420178
  27.8115718  67.3301931  36.5258655  27.6100765  66.7304764  36.0627106
  41.7176304  74.7427573  31.6701633  41.7759428  75.1914222  32.4161610
  41.0842771  75.1526386  31.2331713  41.6327599  74.8701308  31.7154182
  35.3575399  80.3631115  28.1056380  35.1595087  80.8521929  27.4112591
  34.7363110  80.5672356  28.6840513  35.2362963  80.4647653  28.0879603
  29.4183377  72.1316012  22.4466624  30.1625422  72.5190288  22.6849574
  29.5644073  71.2873437  22.6107112  29.5493962  72.0646485  22.5060594
  31.3362952  63.9266271  27.4798485  30.4898997  64.0989078  27.3539835
  31.3334085  63.1215614  27.8164314  31.2110102  63.8327300  27.5109612
  32.4061253  67.7041485  28.3460543  31.9321207  67.1783247  28.8565854
  32.7779389  67.1570958  27.7775405  32.3911142  67.5457482  28.3375690
  22.7834283  69.7012992  33.7144089  23.6459896  69.6008701  33.6281419
  22.4526066  69.1207701  33.1529661  22.8619479  69.6004618  33.6189495
  38.6697983  72.7643861  29.7567324  38.4296206  71.9250276  29.7609750
  39.1489991  72.8444027  30.4808097  38.7050167  72.6525260  29.8642126
  34.3344752  68.5978040  21.4086297  33.8067771  68.6806784  20.7192006
  34.7940461  69.3395911  21.4050942  34.3246603  68.7198702  21.3060992
  40.6703170  69.5445318  27.7096583  40.4312940  69.5041152  26.8717367
  40.8337072  70.3916470  27.8362304  40.6593474  69.6637403  27.6050065
  37.2749200  73.9295267  33.6401628  37.9983399  73.4767794  33.4612648
  37.0099163  74.2099933  32.8573956  37.3430474  73.9046236  33.4980343
  26.1436069  68.5255441  30.3754507  25.5189139  68.5373833  29.7680460
  25.8081664  69.0015616  31.0245747  26.0021561  68.5973958  30.3811076
  26.3277818  66.8680559  16.4327192  25.9790622  67.5200284  16.8958741
  25.8474263  66.8537672  15.7051063  26.2048061  66.9623613  16.3938283
  22.8561744  76.5855901  31.8158271  22.3261669  75.8948340  31.8653246
  23.1286838  76.5766086  30.9870980  22.8186467  76.4823033  31.7005687
  33.8881835  77.1681603  20.5395954  34.6116034  77.6339716  20.3960527
  33.4482426  77.2355213  19.7893551  33.9297527  77.2465440  20.4080735
  33.0567990  74.0279145  31.7896643  32.4424983  73.4837196  32.0845278
  33.5735275  73.5143382  31.3102459  33.0423652  73.8715554  31.7620871
  32.2964287  75.0983415  29.5240942  31.8691895  74.4733134  29.0906377
  32.2889232  74.8158337  30.3499949  32.2323428  74.9636196  29.5820769
  25.4126814  70.1348588  32.5929376  25.5720301  69.3791913  32.9981098
  25.2319708  70.6839528  33.2470113  25.4092173  70.1042402  32.7492082
  33.3547117  62.3009824  33.1480165  32.8587678  62.4973498  32.4571732
  34.1116179  62.7002492  32.9768967  33.3933942  62.3887558  33.0200302
  30.6249997  65.9752170  29.7383476  30.6492484  65.4412282  29.0496256
  30.8761470  65.4669479  30.4009066  30.6659916  65.8213074  29.7348120
  18.1357587  73.2583665  29.1726620  18.0301036  73.2130509  28.3078704
  17.3857807  73.6037446  29.4540905  18.0093190  73.3024573  29.0863949
  26.9051319  64.7022988  29.1189220  26.9449691  65.2032195  29.8323927
  26.0800984  64.7933382  28.8495143  26.7890845  64.7904805  29.1839758
  29.0880932  74.2683728  37.2209515  28.2376562  74.4055442  37.3567159
  29.2509060  73.5347506  37.6657216  28.9864795  74.1797829  37.3065114
  28.3265682  71.2183498  31.4163119  27.4957612  71.3857316  31.2098367
  28.2717200  70.8419449  32.2012004  28.1955097  71.1873229  31.5011647
  26.1349466  64.7092391  37.0519530  26.7602169  64.1654524  37.3248962
  25.6799946  64.2287309  36.4827320  26.1597726  64.5581872  37.0081123
  26.7001726  69.4939090  21.9453237  26.8404687  69.9911554  22.6481878
  27.1984259  68.7925384  22.0867450  26.7942807  69.4641068  22.0704816
  26.7301949  70.3606201  19.2745813  27.3647028  70.9566626  19.2095275
  26.8127559  70.0609658  20.0891684  26.8358500  70.4047109  19.3848900
  39.7084514  72.8921678  32.1432178  40.3002355  73.5318929  32.1750376
  40.1443509  72.1944715  32.4324244  39.8602946  72.8840028  32.1913010
  28.3080932  66.2920176  19.2491255  28.6296773  65.8123259  18.5950518
  28.5707875  67.1019822  19.0582067  28.3946957  66.3410074  19.1246748
  31.5377904  77.3139050  32.7690072  31.0302995  77.8674897  33.2130702
  31.2404550  77.3747340  31.9508846  31.4182789  77.4045362  32.7138528
  33.7040087  65.6792370  31.6114735  34.1295158  65.2264896  30.9998261
  33.0897080  65.1252441  31.8879522  33.6768732  65.5306346  31.5619760
  23.2354937  72.5574041  22.5435359  23.7447166  73.1538549  22.9246665
  23.7089209  72.2900015  21.8611779  23.3798312  72.6059857  22.4989882
  34.1485685  81.2302308  20.6994015  33.4314994  81.0563170  20.2341252
  34.7992422  80.9954880  20.1669501  34.1387535  81.1698101  20.5523233
  32.1434309  62.1507470  25.0205312  31.5002627  62.0005116  25.5890450
  31.8033716  61.9049815  24.2554416  31.9979387  62.0919592  24.9908327
  36.7333656  70.1066897  24.4435320  36.0624846  70.6496599  24.3148386
  37.4273406  70.5761752  24.2017015  36.7362523  70.2565168  24.3890848
  36.8961783  66.5622780  27.3525693  37.2489393  66.1352503  28.0271492
  36.0376585  66.4773624  27.4826770  36.8211228  66.4867521  27.4720704
  25.5945468  69.1930300  25.4108540  24.8757457  69.6094433  25.6781403
  25.9657831  69.7584539  24.8600178  25.5437400  69.3379581  25.3691347
  34.8945049  69.8258149  31.3010536  34.8742976  69.6441444  32.1545314
  34.9424250  70.6970167  31.2770119  34.8979690  69.9274687  31.4233830
  32.8391379  76.4145341  37.2259012  32.7987234  75.7695018  36.6404168
  33.6514697  76.3581958  37.5384424  32.9534532  76.3104308  37.1855961
  31.3692043  68.2328300  20.7481919  30.7756882  68.5545296  20.1966486
  31.4067320  67.3869395  20.5403026  31.2866432  68.1552628  20.6364691
  38.3285843  61.6841192  28.2810006  37.8216708  60.9770332  28.2131183
  39.1253277  61.3534381  28.4111082  38.3713083  61.5314343  28.2909001
  34.2449859  68.1907804  24.1783670  34.0163552  68.2140506  23.3362028
  34.5047935  67.3665271  24.2978680  34.2496047  68.0723884  24.0708867
  28.5269088  70.0442277  33.7808770  28.0147991  69.4363460  34.1393801
  28.3548584  70.7598870  34.2482746  28.4258725  70.0605577  33.9024993
  23.3734802  68.4879853  36.4311132  23.2037393  69.1481228  35.8859338
  22.9300752  68.6986414  37.1523621  23.2834136  68.6165835  36.4572761
  27.2994622  66.7284351  25.4737865  27.7751988  67.0901430  24.8388046
  26.7983221  67.3840818  25.7538008  27.2959981  66.8778539  25.4214606
  40.5305983  76.2006119  21.2650870  40.9139589  76.9497475  21.4948967
  39.7350097  76.4471938  21.0062859  40.4699766  76.3475813  21.2608444
  32.4038158  67.9666522  36.2211025  32.9609588  67.7380332  35.5889491
  32.0799223  68.7272188  35.9446238  32.4384568  68.0450359  36.0867522
  20.2736867  71.3926718  31.6899621  19.7263586  70.7227364  31.8080490
  21.0629245  71.0256566  31.7543089  20.3089051  71.2391705  31.7168322
  30.1221275  71.0534175  37.1863032  30.8732602  71.3685852  37.5002587
  30.3143852  70.8513346  36.3596954  30.2612689  71.0701557  37.1106428
  36.9706565  67.1807742  24.4286828  36.9700792  67.0256398  25.2871104
  36.7662745  68.0270729  24.3728214  36.9406343  67.2828362  24.5474767
  19.0323836  70.6047526  28.8445644  18.8545597  70.1524135  29.5700560
  18.7442859  71.4073687  29.0284122  18.9636790  70.6570084  28.9789147
  34.6947417  71.8605243  28.0823035  35.1901083  71.1428238  28.0427055
  33.8847193  71.5576041  27.9677522  34.6491311  71.7102890  28.0596761
  30.1406029  75.7103057  20.2320039  29.3317352  75.3869730  20.1853349
  30.6480938  75.0036279  20.1648288  30.0955696  75.5584373  20.2150334
  20.7696306  73.1375250  25.9567404  19.9041826  73.1260940  25.8450175
  20.8695122  72.9505473  26.8038543  20.6570473  73.1081311  26.0656348
  36.7599236  74.6108931  30.7700164  37.1854308  74.0883353  30.2170589
  36.3956156  75.2089768  30.2488787  36.7685839  74.6219158  30.6109173
  33.3477836  78.3243195  27.1001321  33.8189014  79.0383458  27.2691306
  33.6838014  77.7241945  27.6361191  33.4672951  78.3414659  27.2033697
  35.4354820  79.9344509  39.2793393  35.5451786  79.1453069  39.6350140
  35.7645717  79.8450445  38.4767731  35.5007226  79.8050361  39.2135784
  30.2647331  63.0970666  34.0559416  30.3975236  62.3001659  34.3840391
  30.6492483  63.6237069  34.6357691  30.3403660  63.0570582  34.1902919
  33.9851782  78.1161129  33.8629014  33.4372728  77.4919013  33.5949079
  34.4464811  78.3055401  33.1473093  33.9718992  78.0520180  33.7179445
  33.3379686  60.0200992  30.6540509  32.5325650  59.9098722  30.9708347
  33.2086421  60.1213448  29.7970375  33.1999819  60.0184662  30.5748549
  36.7945646  66.1846484  31.2480206  36.2108635  66.6855690  30.8357773
  37.1149941  65.6776040  30.6144529  36.7558822  66.1838319  31.0938713
  29.3340446  65.0987079  21.5238881  30.1556140  65.2685392  21.2820576
  28.8710097  65.2534340  20.8005178  29.3871608  65.1468812  21.3810525
  27.9235777  63.0929841  32.3037310  28.4680190  62.7520968  32.8941651
  27.9772713  63.9515302  32.4458594  28.0124897  63.1685100  32.4119183
  23.7366336  76.8546257  29.1776117  24.3411194  76.8142091  28.5489938
  23.5293649  77.7017409  29.2080173  23.7955234  76.9734259  29.0892234
  33.5510108  79.1212202  30.3938355  34.3708482  78.9775168  30.6554650
  33.2704186  79.7458401  30.9354793  33.6306852  79.1922554  30.5126294
  18.9717619  75.8380874  29.0475041  18.8741897  75.0277146  29.3565097
  19.7546488  75.8172668  28.6621309  19.0733755  75.7147965  29.0361904
  50.0223759  86.7777054  23.3581231  49.9917763  87.6321690  23.5299501
  50.6205108  86.4772346  23.9167375  50.1060917  86.8593550  23.4656034
  39.9499230  80.7131770  27.0824545  39.6202561  81.1642914  26.4128244
  39.2744232  80.6347934  27.6297551  39.8009667  80.7682906  27.0647768
  47.1575638  76.7017293  25.3274155  46.8429079  77.3920772  25.7594578
  46.6402580  76.6462076  24.6259656  47.0340109  76.7952182  25.2871105
  38.1555185  78.7744059  22.5647493  38.9101153  79.1422376  22.3264543
  37.9782719  79.1483613  23.3326672  38.2409663  78.8842247  22.6432381
  51.4490083  84.9238499  30.6095032  50.6118504  84.9940686  30.8442626
  51.4178314  84.9262994  29.7369334  51.3208366  84.9348726  30.5154580
  36.5112249  81.1814378  19.2625606  36.3287822  81.3986259  18.4366598
  37.3737862  81.2953391  19.3184220  36.6116839  81.2304276  19.1480093
  42.1911968  78.1840789  22.2974629  42.9198129  78.0056743  21.8512786
  42.2806861  79.0258868  22.5081807  42.3118630  78.2824667  22.2628147
  49.1297923  79.9881281  29.1938754  49.7723832  80.0579386  29.7800669
  49.3820944  79.3210504  28.6918296  49.2620055  79.9007630  29.2066033
  36.9015136  83.1981844  33.8063328  36.2086932  82.7278824  34.0524060
  37.5175463  82.9720149  34.3805035  36.8899666  83.0948976  33.9272481
  44.3649206  81.0818252  26.9049707  43.6605532  80.5927438  27.0633626
  44.4134180  81.0940727  26.0338152  44.2679257  81.0107900  26.7989047
  51.5679425  84.7625918  24.9250718  51.3115990  83.9505860  24.7348601
  52.4108739  84.7703485  24.6980905  51.6545451  84.6437916  24.8635535
  45.7482518  78.7025542  29.6626872  46.1293030  78.0203713  30.0494746
  44.9445802  78.4135144  29.4802536  45.6858979  78.5592591  29.6930928
  39.7074358  81.2079741  39.5289480  39.3927799  81.9779303  39.2659043
  39.3864291  80.6449997  38.9441707  39.6133277  81.2390009  39.4030830
  37.2606255  79.5970262  25.1435677  36.3928681  79.6692862  25.2093286
  37.5481459  80.3992341  25.3323652  37.1746003  79.7264409  25.1810443
  46.3839144  79.7448121  33.4746999  47.1292736  79.5557932  33.0610424
  45.9676448  80.2706359  32.9160855  46.4324118  79.7950267  33.3311572
  53.7601415  87.1157350  28.4252503  54.3109336  86.4825419  28.6649596
  53.7445530  87.6472743  29.1168008  53.8386611  87.1006298  28.5631362
  47.4629821  85.3553684  27.5357100  47.1194587  84.6344019  27.8864349
  47.5622864  85.1467535  26.6935458  47.4271864  85.2177887  27.4628780
  45.9820786  83.2745268  29.4116643  45.1431887  83.3006547  29.1754906
  46.0525154  83.9216004  29.9921989  45.8689180  83.3741394  29.4625759
  44.4290065  80.1730645  24.1444259  45.1316417  79.9738394  23.6664217
  44.1634253  79.4006588  24.4513102  44.4936697  80.0293611  24.1189700
  39.1918621  81.4365931  33.1975139  39.0001818  81.4521065  34.0474563
  40.0417217  81.6329605  33.1741794  39.2894343  81.4680282  33.3198434
  43.7304126  85.8024002  25.3203444  43.4838841  85.7219753  26.1540233
  44.0589249  85.0177470  25.1265971  43.7425370  85.6750268  25.4150967
  42.1022848  81.6321440  33.4046962  42.5595462  82.3645414  33.5319754
  42.1779177  81.2087905  34.1634218  42.1813818  81.6778678  33.5348039
  34.3455839  81.8787260  34.4936406  33.8098029  81.2667618  34.8097173
  34.4073604  82.4535396  35.1470073  34.2751472  81.8734187  34.6371833
  46.5750174  74.8111315  27.2740805  46.6933742  75.2687778  26.5408108
  46.4012350  74.0056576  26.9877023  46.5669345  74.7605087  27.1241739
  39.9805226  83.6223544  30.2488786  39.1901301  83.4415004  30.5706122
  40.3765849  82.8450496  30.2319081  39.9222102  83.4811005  30.2941335
  44.1513009  83.5562182  33.2272124  44.3654979  82.9173096  32.6735478
  43.5346908  84.0008006  32.7979986  44.0918338  83.5272325  33.0822555
  46.3152097  85.1651247  34.1655431  45.5028779  84.8577137  34.2468604
  46.7742032  84.6850247  34.7298144  46.2632482  85.0487739  34.2610026
  43.5427738  76.6662117  28.2159467  42.6721296  76.6400839  28.1692777
  43.7968079  76.4939310  27.3985313  43.4521298  76.6372261  28.0879604
  40.5676878  78.6768346  29.6732937  40.0515367  77.9848537  29.7984516
  40.0070807  79.3439123  29.6195536  40.4083391  78.6731604  29.6839003
  42.6369112  79.2161306  31.5025790  42.2500865  79.2410337  32.2839320
  42.1502049  78.6502985  31.0500307  42.5081620  79.1357057  31.5513694
  48.6119091  85.7823961  30.1265492  48.1846699  85.6950309  29.3713592
  47.9745144  85.8901736  30.7120336  48.4548698  85.7856621  30.1010934
  42.3026253  76.1028291  33.7936050  42.9319371  76.6388591  33.5157120
  42.4712116  76.0105650  34.6449616  42.4204048  76.1689654  33.8784578
  42.1040168  80.8899486  36.0662462  42.9313598  80.6184635  36.1221076
  42.1248014  81.6860328  36.4226280  42.2293018  80.9679240  36.1277644
  45.7950172  78.6364180  26.7621352  45.9999765  78.5686488  27.6078349
  45.4676596  79.4423001  26.6942529  45.7765420  78.7450120  26.8781007
  39.5492420  83.2745268  23.0675022  39.8252154  82.5564180  22.6552589
  40.1491089  83.8730188  22.8596128  39.6785685  83.2565639  22.9755783
  49.0483859  79.1895944  26.2424117  48.4358173  79.6766346  26.6277849
  49.1448034  78.5139435  26.7861768  48.9721757  79.1614253  26.3802975
  43.0502940  80.9458785  21.3421617  43.5046687  81.1169346  22.0669461
  43.5242986  80.3326896  20.9419392  43.1871261  80.8809671  21.3895378
  36.9679089  81.5909109  31.3392373  37.4280570  81.6648038  32.0767496
  37.0135195  82.3890363  30.9892194  37.0429644  81.7203256  31.3965129
  38.6162438  82.2575804  35.9064400  38.2248004  81.6109151  36.3420178
  38.7848301  82.8487239  36.5258655  38.5833349  82.2490072  36.0627106
  42.3095536  79.4451579  27.4798485  41.4631581  79.6174386  27.3539835
  42.3066668  78.6400922  27.8164314  42.1842686  79.3512607  27.5109612
  43.3793836  83.2226793  28.3460543  42.9053791  82.6968555  28.8565854
  43.7511972  82.6756266  27.7775405  43.3643725  83.0642790  28.3375690
  45.3077336  84.1163348  21.4086297  44.7800355  84.1992092  20.7192006
  45.7673044  84.8581219  21.4050942  45.2979186  84.2384010  21.3060992
  51.6435754  85.0630626  27.7096583  51.4045524  85.0226460  26.8717367
  51.8069655  85.9101778  27.8362304  51.6326057  85.1822711  27.6050065
  37.3010401  82.3865867  16.4327192  36.9523205  83.0385592  16.8958741
  36.8206847  82.3722980  15.7051063  37.1780645  82.4808921  16.3938283
  44.3279701  77.8195132  33.1480165  43.8320262  78.0158806  32.4571732
  45.0848763  78.2187800  32.9768967  44.3666526  77.9072866  33.0200302
  41.5982580  81.4937478  29.7383476  41.6225068  80.9597590  29.0496256
  41.8494054  80.9854787  30.4009066  41.6392499  81.3398382  29.7348120
  37.8783903  80.2208296  29.1189220  37.9182274  80.7217503  29.8323927
  37.0533567  80.3118690  28.8495143  37.7623429  80.3090112  29.1839758
  37.1082049  80.2277699  37.0519530  37.7334753  79.6839832  37.3248962
  36.6532529  79.7472616  36.4827320  37.1330310  80.0767180  37.0081123
  39.2813515  81.8105484  19.2491255  39.6029356  81.3308566  18.5950518
  39.5440459  82.6205130  19.0582067  39.3679541  81.8595382  19.1246748
  44.6772670  81.1977678  31.6114735  45.1027742  80.7450204  30.9998261
  44.0629663  80.6437749  31.8879522  44.6501315  81.0491654  31.5619760
  43.1166893  77.6692778  25.0205312  42.4735211  77.5190424  25.5890450
  42.7766300  77.4235123  24.2554416  42.9711970  77.6104900  24.9908327
  47.7066239  85.6252205  24.4435320  47.0357429  86.1681907  24.3148386
  48.4005990  86.0947060  24.2017015  47.7095107  85.7750476  24.3890848
  47.8694367  82.0808088  27.3525693  48.2221977  81.6537811  28.0271492
  47.0109168  81.9958932  27.4826770  47.7943812  82.0052829  27.4720704
  45.8677633  85.3443457  31.3010536  45.8475560  85.1626752  32.1545314
  45.9156833  86.2155475  31.2770119  45.8712274  85.4459995  31.4233830
  42.3424626  83.7513608  20.7481919  41.7489466  84.0730604  20.1966486
  42.3799904  82.9054703  20.5403026  42.2599015  83.6737936  20.6364691
  49.3018427  77.2026500  28.2810006  48.7949292  76.4955640  28.2131183
  50.0985861  76.8719689  28.4111082  49.3445666  77.0499651  28.2909001
  45.2182443  83.7093112  24.1783670  44.9896136  83.7325814  23.3362028
  45.4780519  82.8850579  24.2978680  45.2228631  83.5909192  24.0708867
  38.2727205  82.2469659  25.4737865  38.7484572  82.6086738  24.8388046
  37.7715805  82.9026126  25.7538008  38.2692564  82.3963847  25.4214606
  43.3770742  83.4851830  36.2211025  43.9342172  83.2565639  35.5889491
  43.0531807  84.2457496  35.9446238  43.4117152  83.5635667  36.0867522
  47.9439149  82.6993050  24.4286828  47.9433375  82.5441706  25.2871104
  47.7395329  83.5456037  24.3728214  47.9138927  82.8013670  24.5474767
  41.2379914  78.6155974  34.0559416  41.3707820  77.8186967  34.3840391
  41.6225067  79.1422377  34.6357691  41.3136243  78.5755890  34.1902919
  44.3112269  75.5386300  30.6540509  43.5058233  75.4284029  30.9708347
  44.1819005  75.6398756  29.7970375  44.1732402  75.5369970  30.5748549
  47.7678230  81.7031792  31.2480206  47.1841219  82.2040998  30.8357773
  48.0882524  81.1961348  30.6144529  47.7291405  81.7023627  31.0938713
  40.3073029  80.6172387  21.5238881  41.1288724  80.7870699  21.2820576
  39.8442680  80.7719648  20.8005178  40.3604191  80.6654120  21.3810525
  38.8968361  78.6115149  32.3037310  39.4412774  78.2706276  32.8941651
  38.9505297  79.4700610  32.4458594  38.9857480  78.6870408  32.4119183
  13.3070233  22.5161438  24.6534665  14.0137001  22.0213469  24.7821599
  13.4958169  22.9570519  23.9237323  13.4398139  22.5079788  24.5643710
  12.8428338  18.3066956  17.6905860  13.3884298  18.9852043  17.7499830
  12.7845214  18.1654417  16.8307442  12.9144252  18.3858958  17.5717921
   5.8003152  30.7133611  14.4789069   6.4440608  31.1546775  14.8685227
   6.1259408  29.9087038  14.3919327   5.9434981  30.6598806  14.5234546
   8.7471110  23.5530944  16.7748827   9.0294353  22.7582350  16.5535582
   9.4757270  24.0311531  16.7953888   8.8960674  23.5065541  16.7451842
  18.7289198  22.6590306  13.7484657  17.8986901  22.8700950  13.9118074
  18.6798450  21.8327361  13.4726941  18.5995934  22.5679912  13.7322023
   6.7898936  25.4894160  16.5832567   6.2725877  25.1301575  15.9793875
   7.4873327  24.9656335  16.5938633   6.8164517  25.3591848  16.4962825
   8.0132987  25.2220134  21.5266402   7.4503822  24.8092744  22.0506063
   8.7754011  25.1473040  21.9459545   8.0427436  25.1497535  21.6659402
  18.2243156  15.3060707  17.5435079  17.3871578  15.3762894  17.7782673
  18.1931387  15.3085202  16.6709381  18.0961439  15.3170934  17.4494627
   4.6207886  17.4493742  23.2583447   4.7928389  17.3399637  24.1068729
   5.1577243  18.0948148  23.0214640   4.7252889  17.5285744  23.3488544
   3.5232457  23.8225383  17.9401946   4.0630682  23.6796514  18.6105318
   2.8402404  24.2222133  18.3085972   3.5024611  23.8605054  18.0936367
  15.9853513  23.3289661  13.8849373  15.5488745  23.3326403  14.6408345
  15.6516429  24.0095159  13.4528951  15.8716133  23.4302116  13.9330206
  10.5582587  25.3697993  25.2092523  11.3423004  25.4828841  25.5748266
  10.3579182  24.5439130  25.4051209  10.6448612  25.2644713  25.2926909
  10.7152980  27.2808095  18.8558979   9.9168226  27.0407595  19.1132848
  11.1638992  27.3322488  19.6026027  10.6627592  27.2530487  19.0043903
   2.4008768  17.5469456  21.8830220   3.1248740  17.5322486  22.3695115
   2.5024904  18.2564811  21.3852188   2.5226977  17.6494159  21.8809007
   9.7753717  21.0268540  26.7479167   8.9826698  21.3412052  26.9331787
   9.8902644  21.2420009  25.9099952   9.6749128  21.1052377  26.6517502
  10.7037510  20.9288744  21.6864464  11.2776372  20.2915988  21.8413028
  10.6252314  20.9292826  20.8174122  10.7770745  20.8353855  21.5810875
  16.0257658  22.2997722  21.6949317  15.7896295  21.4685786  21.5761378
  16.6700887  22.2483329  22.2804161  16.0852329  22.1695410  21.7635211
   6.4827431  11.5901948  26.4629527   6.1680872  12.3601511  26.1999090
   6.1617364  11.0272204  25.8781754   6.3886350  11.6212217  26.3370877
  17.0494078  22.0842170  17.7577612  16.7439896  22.8170227  18.1190927
  16.3300294  21.6780100  17.4770398  16.8981421  22.1323903  17.7690749
  22.7495871  18.7235171  17.0845956  22.6820371  18.7431130  16.2148542
  22.7351533  19.5665498  17.3101626  22.7374627  18.8508906  16.9898433
  20.5354488  17.4979557  15.3592550  21.0862409  16.8647626  15.5989642
  20.5198603  18.0294950  16.0508055  20.6139684  17.4828505  15.4971409
   7.1876879  21.3318155  19.9052444   6.6888572  22.0433922  19.9837332
   7.9977103  21.6518821  19.8670606   7.2332986  21.4845003  19.9109012
   6.1143937  14.1899199  25.2014742   5.3043713  14.4956979  25.0904584
   6.5918623  14.9104781  25.3167326   6.0647416  14.3413800  25.2021813
  14.4005248  22.8929569  16.0430272  14.2619608  23.5910615  16.5479014
  13.6205246  22.7378225  15.6866454  14.2648475  22.9729736  16.0656546
  12.7383333  19.1925944  22.2952654  12.7331372  18.3205761  22.2995080
  13.4444327  19.3914113  21.8222109  12.8428337  19.0929818  22.2259689
   6.4654227  18.9202928  21.6666474   6.6097602  19.5004136  21.0309584
   6.8129875  19.2979225  22.3716328   6.5381688  19.0623632  21.6765469
   8.6374144  18.1193097  19.4491605   7.8897458  18.3124111  19.0439883
   8.7915669  17.2938316  19.2115727   8.5496572  18.0258208  19.3537011
   5.5381982  27.1105700  18.5327501   5.6871545  26.5508616  17.8800905
   6.3181984  27.1897702  18.9160019   5.6756075  27.0391265  18.4924450
   8.0635282  27.2820343  19.8111991   7.9878953  26.6129153  20.3662780
   7.9925142  27.9838131  20.3252658   8.0415889  27.2865250  19.9688840
   9.2696129  16.4806010  21.6652332   9.2055271  17.3415967  21.5372469
   9.4093317  16.1638004  20.8647883   9.2811599  16.5606177  21.5280545
   7.4526917  30.6888663  18.2689992   7.9422847  29.9899452  18.0865657
   6.8811149  30.3912533  18.8566050   7.4411447  30.5414886  18.3291033
  13.6493920  23.2550732  27.2216783  14.4628786  22.9835881  27.3821915
  13.4888887  22.9558272  26.4176979  13.7463869  23.1705658  27.1262189
  13.0905170  15.5473454  21.0995478  12.2781852  15.2399345  21.1808651
  13.5495105  15.0672455  21.6638190  13.0385555  15.4309947  21.1950072
  10.1858678  16.9533526  25.8824181  10.6558309  17.5775642  26.2692055
  10.2320558  16.2850501  26.4417395  10.2626554  16.9468206  26.0224252
  13.6615164  24.3157022  22.4939623  14.2994885  23.8217218  22.1602079
  13.0189256  24.2434423  21.9091850  13.6609391  24.2316031  22.3581978
   8.8793241  11.2721694  23.0002508   9.7066671  11.0006842  23.0561123
   8.9001087  12.0682535  23.3566326   9.0046091  11.3501448  23.0617691
  13.7169421  25.0076831  19.1344980  14.5061799  24.6565895  19.2547062
  13.8913019  25.8213219  18.8721614  13.8589702  25.0762688  19.1132848
   5.3297747  23.5616676  20.1442464   5.2218102  23.5718738  21.0104522
   5.5393529  24.3871457  19.9547418   5.3447858  23.6857751  20.2446556
  19.4661961  20.6435088  18.6041680  19.5245084  21.0921737  19.3501657
  18.8328428  21.0533901  18.1671760  19.3813256  20.7708823  18.6494228
  13.1061055  26.2638630  15.0396426  12.9080744  26.7529445  14.3452638
  12.4848766  26.4679872  15.6180560  12.9848620  26.3655168  15.0219650
  16.4183640  18.6651376  16.6907371  16.1781863  17.8257791  16.6949797
  16.8975647  18.7451543  17.4148144  16.4535824  18.5532776  16.7982173
  15.0234857  19.8302782  20.5741675  15.7469056  19.3775309  20.3952695
  14.7584820  20.1107448  19.7914003  15.0916131  19.8053751  20.4320390
  10.8053647  19.9286661  18.7236690  10.1910640  19.3844711  19.0185325
  11.3220932  19.4150897  18.2442506  10.7909309  19.7723070  18.6960918
   6.8366589  20.1691244  24.1549561   5.9862219  20.3062958  24.2907206
   6.9994716  19.4355022  24.5997263   6.7350452  20.0805345  24.2405161
  17.4570171  18.7929193  19.0772224  18.0488012  19.4326444  19.1090423
  17.8929166  18.0952230  19.3664291  17.6088602  18.7847544  19.1253057
   9.2863561  23.2146566  19.7030118   8.7788652  23.7682413  20.1470749
   8.9890207  23.2754856  18.8848893   9.1668446  23.3052877  19.6478575
   8.5306046  28.1471124  16.6087125   8.3071701  27.3889953  16.9771152
   8.0415890  28.1769145  15.8867565   8.4249495  28.0393348  16.5563866
  12.6430706  15.7265664  18.2350582  12.6228633  15.5448959  19.0885361
  12.6909907  16.5977683  18.2110166  12.6465347  15.8282202  18.3573877
  10.5877036  22.3152856  24.1599059  10.5472891  21.6702533  23.5744215
  11.4000354  22.2589474  24.4724471  10.7020189  22.2111823  24.1196008
   7.1784503  28.3671582  14.0624210   6.7644902  27.7045712  13.6728052
   7.8631878  28.5149441  13.5419904   7.2182875  28.2912240  13.9280707
  10.5449797  27.5261667  14.8147826  10.1466081  27.6363938  14.0468647
   9.9301017  27.7343734  15.3974386  10.3948687  27.5735235  14.7879126
   6.2754744  15.9449793  20.7148817   5.7633648  15.3370976  21.0733848
   6.1034241  16.6606385  21.1822792   6.1744381  15.9613092  20.8365040
  10.1523815  13.8674037  23.1551072  10.7095245  13.6387847  22.5229538
   9.8284880  14.6279703  22.8786285  10.1870225  13.9457874  23.0207569
   7.8706932  16.9541691  24.1203079   8.6218259  17.2693367  24.4342633
   8.0629509  16.7520862  23.2937001   8.0098346  16.9709072  24.0446475
  14.5084893  20.5116446  17.7040210  14.9339965  19.9890868  17.1510635
  14.1441813  21.1097284  17.1828833  14.5171496  20.5226673  17.5449220
   4.1438973  28.8080664  16.4637556   4.4585532  29.6217052  16.4715338
   4.5532386  28.4230882  17.1319715   4.2507071  28.8709366  16.5641648
  11.0963493  24.2250711  14.0341368  11.5674671  24.9390973  14.2031353
  11.4323671  23.6249461  14.5701237  11.2158608  24.2422175  14.1373744
  13.1840477  25.8352024  26.2133440  13.2937443  25.0460584  26.5690187
  13.5131374  25.7457960  25.4107778  13.2492883  25.7057877  26.1475831
  11.7337439  24.0168645  20.7969060  11.1858385  23.3926528  20.5289126
  12.1950468  24.2062917  20.0813140  11.7204648  23.9527695  20.6519492
  11.2995765  25.0219717  17.3278402  12.1194139  24.8782683  17.5894697
  11.0189843  25.6465916  17.8694840  11.3792509  25.0930069  17.4466341
  27.7709416  32.6784569  10.2921278  27.7403420  33.5329206  10.4639547
  28.3690764  32.3779862  10.8507422  27.8546573  32.7601066  10.3996080
  20.9709100  31.7660220  15.0474208  20.1146996  31.9268718  15.0983325
  21.0176754  30.8952284  15.0679269  20.8508212  31.6611022  15.0580274
  15.3550240  41.3022938  10.8111440  14.6033140  40.9238476  10.5827485
  15.8036252  41.3341372  10.0630250  15.3099907  41.2508545  10.6668942
  24.2802817  38.0346746  24.6534665  24.9869584  37.5398776  24.7821599
  24.4690752  38.4755827  23.9237323  24.4130723  38.0265096  24.5643710
  20.8075200  41.7248307   6.2396987  20.4726568  42.4025229   5.8041209
  21.3202070  41.3353619   5.6513859  20.8340781  41.7672886   6.0883779
  20.3479491  43.6762576  12.1808099  20.7318871  44.2449475  11.6412874
  20.2838633  42.9512086  11.7013915  20.3952919  43.6538040  12.0301961
  23.8160921  33.8252264  17.6905860  24.3616881  34.5037351  17.7499830
  23.7577798  33.6839725  16.8307442  23.8876836  33.9044266  17.5717921
  16.9334996  41.3141330  13.0774213  17.0345359  40.5041684  13.3871340
  16.3376742  41.2198277  12.4473891  16.8607535  41.1806358  13.0300451
  25.5925990  35.2536871   8.5639588  25.4765516  36.0044557   8.9931726
  26.3881877  34.9960824   8.8135675  25.6930580  35.3271718   8.6643680
  16.7735736  46.2318919  14.4789069  17.4173191  46.6732083  14.8685227
  17.0991991  45.4272345  14.3919327  16.9167565  46.1784114  14.5234546
  10.1300041  37.3361617  12.7026546   9.8950225  36.5029269  12.5958815
  10.2685681  37.6166282  11.8887747  10.1155703  37.2545120  12.5668901
  12.4290128  29.5047347  15.6010854  11.8095160  28.9139995  15.4320869
  12.3273992  30.0958782  14.9675177  12.3227804  29.5051430  15.4815843
  17.4756316  39.2430894   9.8508930  17.7972157  39.7836101   9.2470238
  18.1228412  38.6727666   9.9831220  17.6182371  39.2390069   9.7815966
  19.5258024  31.2446889   9.9343317  20.2238188  31.4235017  10.4264780
  19.8410356  30.7217228   9.3113706  19.6753361  31.1940661   9.9145327
  12.1559261  33.0499629  17.8454423  12.0317958  33.6362074  18.4804242
  12.8077546  32.5559825  18.1466698  12.2332910  33.0638433  17.9840352
  19.7145959  37.6317334   9.9223108  20.1539595  37.0234435  10.3677881
  19.5650622  37.2524707   9.1508573  19.7567425  37.4855805   9.8742276
  17.1817602  36.2261346  17.1241934  17.8266605  35.7333789  16.8052882
  17.4219379  36.3686133  17.9508012  17.3128187  36.1738788  17.1991467
  19.7203693  39.0716252  16.7748827  20.0026936  38.2767658  16.5535582
  20.4489854  39.5496839  16.7953888  19.8693257  39.0250849  16.7451842
  17.6984887  26.6139286  14.0164592  17.3688217  27.0650429  13.3468290
  17.0229889  26.5355449  14.5637598  17.5495324  26.6690421  13.9987815
  23.3155296  35.9844515   6.8753878  23.2306591  36.8405482   7.0203447
  23.8039679  35.7088839   7.5436037  23.3744193  36.0701837   6.9955959
  24.9061295  22.6024809  12.2614202  24.5914736  23.2928287  12.6934625
  24.3888237  22.5469591  11.5599703  24.7825765  22.6959697  12.2211151
  24.2473729  32.6029310   8.3751613  23.7185200  32.8188943   9.0348919
  24.7698749  33.2965448   8.2952582  24.2462182  32.7372446   8.4607212
  29.7021782  38.1775614  13.7484657  28.8719485  38.3886258  13.9118074
  29.6531034  37.3512669  13.4726941  29.5728517  38.0865220  13.7322023
  16.1373337  36.4992526   7.1759081  15.5530552  37.0042558   7.5824945
  15.7343432  36.2734913   6.4355673  15.9912640  36.5400775   7.1264106
  11.6917365  42.2147287  13.9782752  11.2084944  42.9397777  13.9542336
  12.5040684  42.5123418  14.0892910  11.7408113  42.3649641  13.9910032
  17.7631519  41.0079468  16.5832567  17.2458461  40.6486883  15.9793875
  18.4605911  40.4841643  16.5938633  17.7897100  40.8777156  16.4962825
  21.4195111  41.4574282  22.5448740  21.5078457  41.2700423  23.3926950
  21.8484824  40.8111712  22.1453587  21.4957214  41.3337290  22.6120491
  18.9865571  40.7405442  21.5266402  18.4236406  40.3278052  22.0506063
  19.7486595  40.6658348  21.9459545  19.0160020  40.6682843  21.6659402
  20.5950551  32.7458178   5.6528001  20.8346555  32.9536162   4.8403345
  20.9166392  31.9415687   5.7616946  20.6787709  32.6572280   5.5488554
  14.5461563  42.7303463  14.1303032  15.2482142  42.2155452  14.1875789
  14.4659046  43.0577615  14.9349907  14.6385323  42.7017690  14.2575824
  29.1975740  30.8246015  17.5435079  28.3604161  30.8948202  17.7782673
  29.1663971  30.8270509  16.6709381  29.0694022  30.8356242  17.4494627
  15.5940469  32.9679050  23.2583447  15.7660973  32.8584945  24.1068729
  16.1309827  33.6133456  23.0214640  15.6985473  33.0471052  23.3488544
  13.8712338  38.9209815  13.6388640  14.7101237  39.1532748  13.6862402
  13.9024107  38.0514127  13.5695676  13.9994056  38.8266762  13.6353285
  14.4965041  39.3410691  17.9401946  15.0363266  39.1981822  18.6105318
  13.8134987  39.7407441  18.3085972  14.4757195  39.3790361  18.0936367
  23.9205926  35.0201691  13.1346970  24.6763441  35.4533206  13.1735879
  24.0268250  34.3706461  13.7081606  24.0476096  34.9879175  13.2244996
  26.9586097  38.8474968  13.8849373  26.5221329  38.8511711  14.6408345
  26.6249012  39.5280467  13.4528951  26.8448717  38.9487424  13.9330206
  21.5315171  40.8883301  25.2092523  22.3155587  41.0014149  25.5748266
  21.3311765  40.0624438  25.4051209  21.6181196  40.7830021  25.2926909
   9.9002186  35.5610981  18.0936367   9.6340601  34.7450098  18.2527358
   9.9140750  35.6064137  17.2231883   9.8626908  35.4467886  17.9889849
  26.8783580  25.8888796  16.1278801  27.5209488  25.9586901  16.7140716
  27.1306601  25.2218019  15.6258343  27.0105712  25.8015145  16.1406080
  14.6500792  29.0989360  20.7403375  13.9572589  28.6286339  20.9864107
  15.2661120  28.8727664  21.3145082  14.6385322  28.9956491  20.8612528
  21.6885564  42.7993403  18.8558979  20.8900810  42.5592903  19.1132848
  22.1371575  42.8507796  19.6026027  21.6360175  42.7715794  19.0043903
  30.0930443  35.5655888  12.7769010  30.7546877  35.0046557  12.6764919
  29.4521855  35.0707919  13.1021701  30.0959311  35.4092297  12.8101351
  20.9807251  38.8626020   5.0849934  21.3958399  38.5311044   4.3934429
  20.1499181  38.6294922   4.9570070  20.9195260  38.7797276   4.9640781
  10.3095600  36.3469761  15.3748112  10.1271173  36.3216647  14.5220404
  11.0445269  36.8168699  15.4137020  10.3909664  36.4131123  15.2546030
  26.3795274  36.5821271  12.5180999  26.6150863  36.7266470  11.6907850
  26.5284838  37.3463679  12.9112513  26.4361077  36.7160325  12.4544603
  13.3741351  33.0654764  21.8830220  14.0981324  33.0507794  22.3695115
  13.4757488  33.7750119  21.3852188  13.4959560  33.1679467  21.8809007
  28.2085731  35.4222937  10.3550603  28.5393948  35.9550577   9.7490698
  28.7818819  35.4761824  11.0112554  28.3419410  35.5092506  10.3628385
  20.7486301  36.5453848  26.7479167  19.9559282  36.8597360  26.9331787
  20.8635228  36.7605317  25.9099952  20.6481711  36.6237685  26.6517502
  23.4217620  33.2687839  11.0374183  23.5164474  34.0077133  11.4913809
  22.7976463  32.8405315  11.4708748  23.3426650  33.3149160  11.1682331
  21.6770094  36.4474052  21.6864464  22.2508955  35.8101296  21.8413028
  21.5984897  36.4478134  20.8174122  21.7503328  36.3539163  21.5810875
  10.2766510  33.2263261  15.5247178  10.8540013  33.0899712  16.1639423
   9.5780572  32.7699046  15.7792763  10.2587531  33.1385528  15.6569468
  23.6740641  35.1136579   4.2711135  23.5920804  35.1838766   5.1366122
  24.3120362  35.6766323   4.0794876  23.7560478  35.2075550   4.3701085
  17.0333812  34.8797317  13.7385661  16.7753056  34.0469052  13.7116961
  17.0882295  35.1054930  12.8978162  17.0033590  34.7895088  13.6105798
  22.1134862  26.9825768  13.8389754  21.4091189  26.4934953  13.9973673
  22.1619837  26.9948242  12.9678198  22.0164914  26.9115416  13.7329094
  16.0068524  32.4335080  14.2250556  15.4318116  32.5927248  14.8614517
  15.6304201  31.7970489  13.7619007  15.8671337  32.3632893  14.2505115
  19.6741813  30.9058429  19.0842935  19.2856246  30.4812647  18.4295126
  19.0096511  31.1540578  19.5919961  19.5188741  30.8797150  19.0630802
  29.3165082  30.6633434  11.8590765  29.0601647  29.8513375  11.6688647
  30.1594396  30.6711001  11.6320952  29.4031108  30.5445431  11.7975582
   5.7525343  32.0775154  12.2394997   5.8385595  31.7007023  13.0208527
   6.3801141  31.7035600  11.7614955   5.8581894  31.9660637  12.2840474
  23.4968175  24.6033058  16.5966919  23.8778686  23.9211229  16.9834793
  22.6931459  24.3142660  16.4142583  23.4344636  24.4600106  16.6270975
  20.7780751  35.1357033   7.2819742  21.5921390  35.4271926   7.1702513
  20.7139893  34.4816896   6.7078034  20.8883490  35.0822228   7.1808579
  26.9990241  37.8183030  21.6949317  26.7628879  36.9871094  21.5761378
  27.6433470  37.7668637  22.2804161  27.0584912  37.6880718  21.7635211
  16.6488660  38.6078551  12.4092054  17.2862606  38.3690298  12.9543847
  17.0743731  38.8115710  11.6745214  16.8064826  38.6029561  12.3809211
  11.3401302  40.8466887  16.2926357  11.3805447  41.1181738  15.4646137
  11.8995826  41.3708795  16.7084145  11.4284648  40.9642642  16.2318246
  17.2891475  33.8280841   6.7466943  17.6736627  33.6088547   7.4983488
  17.0403095  34.6543786   6.8768019  17.3093547  33.9178987   6.8768019
  17.4560015  27.1087256  26.4629527  17.1413456  27.8786819  26.1999090
  17.1349948  26.5457512  25.8781754  17.3618934  27.1397525  26.3370877
  28.0226662  37.6027478  17.7577612  27.7172479  38.3355535  18.1190927
  27.3032878  37.1965408  17.4770398  27.8714004  37.6509211  17.7690749
  19.0310131  39.0850974  14.0885840  19.1049140  38.9226145  14.9427690
  19.8479638  39.2741163  13.8446322  19.1626490  39.0887716  14.1783865
  33.7228454  34.2420479  17.0845956  33.6552954  34.2616438  16.2148542
  33.7084117  35.0850806  17.3101626  33.7107211  34.3694214  16.9898433
  12.7915888  39.4308836  11.1180283  11.9654006  39.6770574  10.9914562
  12.8527879  39.3520917  11.9842341  12.6790055  39.4553785  11.2269228
  15.0091912  25.4977777  12.0775724  14.1414337  25.5700377  12.1433333
  15.2967116  26.2999856  12.2663699  14.9231660  25.6271924  12.1150490
  24.1324801  25.6455637  20.4087045  24.8778393  25.4565447  19.9950471
  23.7162105  26.1713875  19.8500902  24.1809775  25.6957782  20.2651619
  31.5087072  33.0164865  15.3592550  32.0594993  32.3832934  15.5989642
  31.4931187  33.5480258  16.0508055  31.5872268  33.0013813  15.4971409
  18.1609462  36.8503462  19.9052444  17.6621156  37.5619230  19.9837332
  18.9709687  37.1704129  19.8670606  18.2065569  37.0030311  19.9109012
  15.5120633  44.0253099  11.8859463  15.2920928  43.7350454  12.6786130
  15.2915155  43.3668054  11.3577375  15.4468227  43.8852807  11.9248372
  14.4237580  36.1126415  14.1515165  14.1350829  35.4863887  14.6860892
  15.2920928  36.0546703  14.2179845  14.5097832  36.0113960  14.2406119
  25.2115478  31.2561199  14.4697146  24.8680244  30.5351534  14.8204396
  25.3108520  31.0475050  13.6275505  25.1757521  31.1185402  14.3968827
  17.6788588  45.3982489  10.6690155  18.3312647  44.8658931  10.8981181
  16.9814197  45.0451141  11.0558029  17.6719306  45.2672012  10.7602323
  14.6269853  37.7521667  10.0757530  15.3815821  38.1334706  10.2892992
  14.0340466  38.2032810  10.5304226  14.6506567  37.8750494  10.1740408
  25.6728507  37.7186903  10.0121135  26.2386539  38.3780113   9.9279678
  25.0256410  38.0636601  10.4837537  25.6607263  37.8668844  10.0693891
  17.0876520  29.7084507  25.2014742  16.2776296  30.0142287  25.0904584
  17.5651207  30.4290089  25.3167326  17.0379999  29.8599108  25.2021813
  15.9468080  38.9230228  15.4497645  15.4248833  39.0630520  16.1349510
  16.3342100  38.1640892  15.6399762  15.9271781  38.8315752  15.5798722
  22.1435085  40.6625687   9.4358214  21.9021761  39.9293548   9.0285279
  22.3236418  41.2112544   8.7824547  22.1342709  40.6348078   9.2788437
  17.3734406  35.9534247  10.8479136  17.1777188  36.5608981  10.2539439
  17.5968751  35.2602191  10.3670810  17.3769047  35.9411772  10.6895217
  15.7712936  32.8388985  10.9660004  16.4935587  33.0030143  10.5063810
  15.2920928  33.5598650  10.8599344  15.8076666  32.9687214  10.8825618
  23.7306443  29.1752784  16.3456689  22.8917544  29.2014063  16.1094953
  23.8010810  29.8223519  16.9262036  23.6174837  29.2748909  16.3965806
  13.4220552  35.2447057  20.0714144  13.9341649  35.5231311  19.4222904
  13.1356895  35.9836351  20.4376957  13.4555415  35.3949411  20.0304022
  22.1775721  26.0738161  11.0784305  22.8802074  25.8745909  10.6004264
  21.9119910  25.3014103  11.3853149  22.2422354  25.9301127  11.0529747
  27.6063967  34.3820770  13.6317931  27.5197942  34.5376196  14.4852710
  27.1514447  35.0258846  13.2577336  27.5267224  34.4996526  13.7025038
  16.9404278  27.3373446  20.1315186  16.7487475  27.3528580  20.9814609
  17.7902874  27.5337120  20.1081841  17.0380000  27.3687797  20.2538481
  11.3251191  29.8664427  18.1099002  11.1836682  29.0148368  18.2343510
  11.6091754  29.9093088  17.2861208  11.3459037  29.7464177  18.0066626
  21.4789783  31.7031518  12.2543491  21.2324497  31.6227268  13.0880280
  21.8074906  30.9184985  12.0606018  21.4911027  31.5757783  12.3491014
  25.3737832  38.4114877  16.0430272  25.2352191  39.1095923  16.5479014
  24.5937830  38.2563533  15.6866454  25.2381059  38.4915044  16.0656546
  23.7115917  34.7111252  22.2952654  23.7063955  33.8391069  22.2995080
  24.4176911  34.9099421  21.8222109  23.8160921  34.6115126  22.2259689
  17.4386810  34.4388236  21.6666474  17.5830186  35.0189444  21.0309584
  17.7862459  34.8164533  22.3716328  17.5114272  34.5808940  21.6765469
  19.6106728  33.6378404  19.4491605  18.8630042  33.8309419  19.0439883
  19.7648253  32.8123624  19.2115727  19.5229155  33.5443516  19.3537011
  16.5114565  42.6291008  18.5327501  16.6604129  42.0693924  17.8800905
  17.2914567  42.7083010  18.9160019  16.6488659  42.5576573  18.4924450
  26.8691205  37.7693131   6.8046771  26.4898013  36.9830269   6.7976060
  26.2057450  38.3179988   6.6618415  26.7149679  37.7337955   6.7827568
  19.0367866  42.8005651  19.8111991  18.9611537  42.1314461  20.3662780
  18.9657725  43.5023439  20.3252658  19.0148473  42.8050558  19.9688840
  19.8508505  27.5328955  20.3387009  20.3081119  28.2652930  20.4659801
  19.9264833  27.1095420  21.0974265  19.9299475  27.5786193  20.4688086
  12.0941496  27.7794775  21.4276453  11.5583685  27.1675133  21.7437220
  12.1559261  28.3542911  22.0810119  12.0237129  27.7741703  21.5711880
  24.3235831  20.7118830  14.2080852  24.4419399  21.1695294  13.4748155
  24.1498006  19.9064092  13.9217070  24.3155002  20.6612603  14.0581786
  19.6938113  41.3206650  10.6435597  20.4588004  41.0516293  10.3218262
  19.5916203  40.8356660  11.3605660  19.7919608  41.2096214  10.7015425
  17.7290883  29.5231059  17.1828833  16.9386957  29.3422519  17.5046169
  18.1251505  28.7458012  17.1659128  17.6707759  29.3818520  17.2281381
  22.2156773  38.3518833   2.6235547  22.9829759  38.4118958   2.2141398
  21.7688082  37.7799275   2.1391865  22.2630201  38.2755409   2.4913257
  23.1134569  37.1573489  14.9088279  22.4379571  36.9258722  15.4101666
  23.1226945  36.5494672  14.2830384  23.0153073  37.0332414  14.8904431
  20.2428713  31.9991318  21.6652332  20.1787854  32.8601275  21.5372469
  20.3825901  31.6823311  20.8647883  20.2544183  32.0791485  21.5280545
  25.1151303  40.0138622   7.1398457  25.1971141  40.8205608   6.8159908
  25.6001046  40.0334581   7.8639230  25.1988461  40.1359284   7.1985356
  18.9247807  34.6923458  15.8068535  18.5010056  34.8927957  15.0707553
  18.7492662  33.8452306  15.9192835  18.8358687  34.5972239  15.7142225
  18.4259500  46.2073971  18.2689992  18.9155431  45.5084760  18.0865657
  17.8543733  45.9097841  18.8566050  18.4144030  46.0600194  18.3291033
  14.2130252  35.1875509  11.2396507  14.3694871  35.1222312  12.0952499
  14.5530845  35.9624062  11.0275187  14.2863487  35.2924707  11.3351102
  20.7509396  34.5633393  10.1089871  21.2924942  34.0603774  10.5728491
  21.0655955  34.5098587   9.2979356  20.8773793  34.4812814  10.0573683
  24.6226504  38.7736040  27.2216783  25.4361369  38.5021189  27.3821915
  24.4621470  38.4743580  26.4176979  24.7196452  38.6890966  27.1262189
  18.9195846  39.9550744   7.3929899  18.9888666  39.0965283   7.5322899
  19.6984301  40.1722625   7.0648923  19.0448696  39.8603608   7.3647056
  21.8998666  29.4569697  20.1612171  22.1140635  28.8180611  19.6075525
  21.2832565  29.9015521  19.7320033  21.8403995  29.4279841  20.0162602
  23.3103334  42.3788445  11.6066392  22.9183125  42.0755161  10.8889258
  23.4656406  43.2157535  11.4171346  23.2756924  42.4572282  11.4722889
  10.7864513  32.3710459  11.5557275  11.1663478  32.7895004  10.8917542
  10.2119878  32.9523915  11.8626118  10.7575838  32.5188318  11.5034016
  24.0637754  31.0658762  21.0995478  23.2514435  30.7584653  21.1808651
  24.5227688  30.5857762  21.6638190  24.0118139  30.9495255  21.1950072
  23.4743008  38.9438434  11.5472423  23.1157663  39.1153077  12.3236455
  22.9881719  39.4051640  10.9900421  23.3501705  39.0377405  11.5797692
  21.2913394  22.5669633  15.1499514  20.4206952  22.5408354  15.1032823
  21.5453736  22.3946825  14.3325360  21.2006955  22.5379776  15.0219651
  21.1591261  32.4718834  25.8824181  21.6290892  33.0960950  26.2692055
  21.2053141  31.8035809  26.4417395  21.2359137  32.4653514  26.0224252
  18.3162535  24.5775861  16.6072984  17.8001023  23.8856053  16.7324563
  17.7556464  25.2446638  16.5535583  18.1569048  24.5739119  16.6179050
  20.3854768  25.1168821  18.4365837  19.9986521  25.1417853  19.2179367
  19.8987706  24.5510500  17.9840353  20.2567277  25.0364572  18.4853741
  24.6347748  39.8342330  22.4939623  25.2727468  39.3402526  22.1602079
  23.9921839  39.7619731  21.9091850  24.6341974  39.7501339  22.3581978
  26.3604748  31.6831476  17.0605539  25.9332356  31.5957825  16.3053639
  25.7230801  31.7909252  17.6460383  26.2034355  31.6864136  17.0350981
  20.0511910  22.0035807  20.7276097  20.6805028  22.5396107  20.4497167
  20.2197773  21.9113166  21.5789662  20.1689705  22.0697169  20.8124625
  19.8525825  26.7907001  23.0002508  20.6799254  26.5192150  23.0561123
  19.8733671  27.5867843  23.3566326  19.9778675  26.8686756  23.0617691
  24.6902004  40.5262139  19.1344980  25.4794383  40.1751203  19.2547062
  24.8645602  41.3398527  18.8721614  24.8322286  40.5947996  19.1132848
  14.4295315  33.9370864  16.1872769  13.5883321  33.8374738  16.3951663
  14.6385323  34.7066345  16.5387090  14.3360007  34.0362908  16.2700084
  11.9070882  31.5590401  14.0157520  11.5127579  31.6333413  13.2407629
  11.3510999  31.9448348  14.5665881  11.7673694  31.6272176  13.9825179
  23.5435829  24.5371695  13.6961399  23.7485422  24.4694003  14.5418396
  23.2162253  25.3430516  13.6282576  23.5251076  24.6457636  13.8121054
  18.2411980  31.8652263  15.4370367  17.9375117  31.3108252  16.0380774
  17.5391400  32.0444473  14.9498401  18.0928189  31.8097046  15.4540072
  17.2978077  29.1752783  10.0015068  17.5737811  28.4571696   9.5892636
  17.8976746  29.7737703   9.7936174  17.4271341  29.1573154   9.9095830
  16.3030331  39.0801984  20.1442464  16.1950686  39.0904046  21.0104522
  16.5126112  39.9056765  19.9547418  16.3180442  39.2043059  20.2446556
  26.7969516  25.0903459  13.1764164  26.1843830  25.5773862  13.5617896
  26.8933691  24.4146950  13.7201815  26.7207414  25.0621768  13.3143022
  14.3204123  36.3314627  17.6064402  13.7292056  36.9724125  17.5767417
  15.0825146  36.7552244  17.5795701  14.3452383  36.4890465  17.5979549
  14.7164745  27.4916624  18.2732420  15.1766227  27.5655554  19.0107543
  14.7620852  28.2897878  17.9232241  14.7915301  27.6210771  18.3305176
  16.3648095  28.1583319  22.8404447  15.9733660  27.5116666  23.2760224
  16.5333958  28.7494754  23.4598702  16.3319006  28.1497587  22.9967153
  30.4394544  36.1620396  18.6041680  30.4977668  36.6107045  19.3501657
  29.8061012  36.5719209  18.1671760  30.3545839  36.2894131  18.6494228
  24.0793639  41.7823938  15.0396426  23.8813328  42.2714753  14.3452638
  23.4581350  41.9865180  15.6180560  23.9581203  41.8840476  15.0219650
  18.1401617  33.5508835   9.3806671  18.8843662  33.9383111   9.6189621
  18.2862313  32.7066260   9.5447158  18.2712202  33.4839308   9.4400640
  20.0581193  25.3459094  14.4138532  19.2117238  25.5181902  14.2879882
  20.0552325  24.5408438  14.7504360  19.9328343  25.2520123  14.4449659
  21.1279493  29.1234308  15.2800590  20.6539447  28.5976070  15.7905901
  21.4997629  28.5763781  14.7115452  21.1129382  28.9650305  15.2715737
  11.5052523  31.1205815  20.6484136  12.3678136  31.0201524  20.5621466
  11.1744306  30.5400524  20.0869708  11.5837720  31.0197442  20.5529542
  27.3916224  34.1836684  16.6907371  27.1514447  33.3443099  16.6949797
  27.8708231  34.2636851  17.4148144  27.4268407  34.0718084  16.7982173
  23.0562993  30.0170863   8.3426344  22.5286011  30.0999607   7.6532053
  23.5158701  30.7588734   8.3390988  23.0464843  30.1391525   8.2401039
  29.3921411  30.9638141  14.6436630  29.1531181  30.9233975  13.8057414
  29.5555312  31.8109293  14.7702351  29.3811714  31.0830226  14.5390112
  25.9967441  35.3488090  20.5741675  26.7201640  34.8960617  20.3952695
  25.7317403  35.6292756  19.7914003  26.0648714  35.3239059  20.4320390
  14.8654309  29.9448264  17.3094554  14.2407379  29.9566656  16.7020507
  14.5299904  30.4208439  17.9585794  14.7239801  30.0166781  17.3151122
  11.5779985  38.0048724  18.7498318  11.0479909  37.3141163  18.7993293
  11.8505078  37.9958909  17.9211027  11.5404707  37.9015856  18.6345734
  22.6100075  38.5874426   7.4736001  23.3334274  39.0532539   7.3300574
  22.1700666  38.6548036   6.7233598  22.6515767  38.6658263   7.3420782
  21.7786230  35.4471969  18.7236690  21.1643223  34.9030019  19.0185325
  22.2953515  34.9336205  18.2442506  21.7641893  35.2908378  18.6960918
  21.0182528  36.5176239  16.4580988  20.5910136  35.8925957  16.0246424
  21.0107472  36.2351161  17.2839996  20.9541669  36.3829019  16.5160816
  14.1345055  31.5541412  19.5269422  14.2938541  30.7984736  19.9321144
  13.9537948  32.1032351  20.1810160  14.1310414  31.5235226  19.6832128
  22.0765358  23.7202647  20.0820212  21.5805919  23.9166322  19.3911779
  22.8334420  24.1195316  19.9109014  22.1152182  23.8080381  19.9540349
  19.3468237  27.3944993  16.6723522  19.3710724  26.8605106  15.9836302
  19.5979711  26.8862302  17.3349113  19.3878156  27.2405897  16.6688167
   6.8575827  34.6776488  16.1066667   6.7519276  34.6323333  15.2418751
   6.1076047  35.0230269  16.3880951   6.7311430  34.7217396  16.0203996
  15.6269559  26.1215811  16.0529267  15.6667931  26.6225018  16.7663974
  14.8019224  26.2126205  15.7835190  15.5109085  26.2097628  16.1179805
  17.8099172  35.6876551  24.1549561  16.9594803  35.8248266  24.2907206
  17.9727300  34.9540330  24.5997263  17.7083036  35.5990653  24.2405161
  17.0483923  32.6376321  18.3503166  16.2175852  32.8050139  18.1438414
  16.9935440  32.2612272  19.1352051  16.9173338  32.6066053  18.4351694
  14.8567706  26.1285214  23.9859576  15.4820409  25.5847347  24.2589009
  14.4018186  25.6480132  23.4167367  14.8815967  25.9774696  23.9421170
  15.4219967  30.9131913   8.8793283  15.5622928  31.4104377   9.5821925
  15.9202499  30.2118207   9.0207497  15.5161048  30.8833892   9.0044862
  28.4302755  34.3114501  19.0772224  29.0220595  34.9511752  19.1090423
  28.8661749  33.6137538  19.3664291  28.5821186  34.3032852  19.1253057
  20.2596145  38.7331874  19.7030118  19.7521236  39.2867720  20.1470749
  19.9622791  38.7940164  18.8848893  20.1401030  38.8238185  19.6478575
  22.4258327  27.0985193  18.5454781  22.8513398  26.6457720  17.9338308
  21.8115320  26.5445264  18.8219569  22.3986972  26.9499169  18.4959807
  11.9573177  33.9766865   9.4775406  12.4665406  34.5731372   9.8586712
  12.4307449  33.7092838   8.7951826  12.1016553  34.0252680   9.4329929
  22.8703925  42.6495131   7.6334062  22.1533235  42.4755994   7.1681299
  23.5210663  42.4147704   7.1009548  22.8605775  42.5890924   7.4863280
  20.8652550  23.5700293  11.9545358  20.2220868  23.4197939  12.5230497
  20.5251957  23.3242638  11.1894463  20.7197627  23.5112416  11.9248374
  25.4551896  31.5259720  11.3775367  24.7843086  32.0689422  11.2488433
  26.1491646  31.9954575  11.1357062  25.4580764  31.6757991  11.3230895
  19.5038630  43.6656432  16.6087125  19.2804284  42.9075261  16.9771152
  19.0148473  43.6954453  15.8867565  19.3982079  43.5578656  16.5563866
  25.6180024  27.9815603  14.2865740  25.9707634  27.5545326  14.9611539
  24.7594825  27.8966447  14.4166817  25.5429468  27.9060344  14.4060751
  14.3163709  30.6123123  12.3448587  13.5975698  31.0287256  12.6121450
  14.6876071  31.1777362  11.7940225  14.2655640  30.7572405  12.3031394
  23.6163289  31.2450972  18.2350582  23.5961217  31.0634267  19.0885361
  23.6642490  32.1162991  18.2110166  23.6197930  31.3467510  18.3573877
  21.5609619  37.8338164  24.1599059  21.5205474  37.1887841  23.5744215
  22.3732938  37.7774781  24.4724471  21.6752773  37.7297131  24.1196008
  18.1517087  43.8856890  14.0624210  17.7377485  43.2231020  13.6728052
  18.8364461  44.0334749  13.5419904  18.1915459  43.8097548  13.9280707
  21.5182381  43.0446975  14.8147826  21.1198664  43.1549246  14.0468647
  20.9033601  43.2529042  15.3974386  21.3681270  43.0920543  14.7879126
  20.0910283  29.6521123   7.6821966  19.4975122  29.9738120   7.1306533
  20.1285561  28.8062218   7.4743072  20.0084672  29.5745451   7.5704737
  27.0504084  23.1034015  15.2150053  26.5434948  22.3963155  15.1471230
  27.8471517  22.7727204  15.3451129  27.0931323  22.9507167  15.2249048
  22.9668100  29.6100628  11.1123716  22.7381793  29.6333329  10.2702075
  23.2266176  28.7858095  11.2318727  22.9714288  29.4916708  11.0048914
  17.2487328  31.4635101  20.7148817  16.7366231  30.8556284  21.0733848
  17.0766824  32.1791693  21.1822792  17.1476965  31.4798400  20.8365040
  12.0953043  29.9072676  23.3651178  11.9255633  30.5674051  22.8199385
  11.6518993  30.1179237  24.0863668  12.0052376  30.0358658  23.3912808
  16.0212862  28.1477174  12.4077912  16.4970228  28.5094254  11.7728093
  15.5201462  28.8033641  12.6878055  16.0178221  28.2971363  12.3554653
  29.2524224  37.6198942   8.1990917  29.6357829  38.3690298   8.4289014
  28.4568337  37.8664762   7.9402906  29.1918006  37.7668636   8.1948491
  21.1256398  29.3859345  23.1551072  21.6827829  29.1573155  22.5229538
  20.8017463  30.1465011  22.8786285  21.1602809  29.4643182  23.0207569
   8.9955107  32.8119542  18.6239668   8.4481827  32.1420187  18.7420537
   9.7847485  32.4449389  18.6883136   9.0307291  32.6584528  18.6508369
  18.8439516  32.4726999  24.1203079  19.5950843  32.7878675  24.4342633
  19.0362092  32.2706169  23.2937001  18.9830930  32.4894380  24.0446475
  25.6924806  28.6000565  11.3626875  25.6919032  28.4449221  12.2211151
  25.4880986  29.4463552  11.3068260  25.6624584  28.7021186  11.4814814
   7.7542077  32.0240349  15.7785691   7.5763838  31.5716958  16.5040607
   7.4661099  32.8266511  15.9624169   7.6855030  32.0762907  15.9129194
  23.4165658  33.2798067  15.0163082  23.9119323  32.5621062  14.9767102
  22.6065434  32.9768864  14.9017569  23.3709551  33.1295713  14.9936807
  18.8624269  37.1295880   7.1660086  18.0535592  36.8062553   7.1193396
  19.3699178  36.4229102   7.0988335  18.8173936  36.9777196   7.1490380
   9.4914547  34.5568073  12.8907450   8.6260066  34.5453764  12.7790222
   9.5913362  34.3698296  13.7378590   9.3788714  34.5274134  12.9996395
  25.4817477  36.0301754  17.7040210  25.9072548  35.5076176  17.1510635
  25.1174397  36.6282592  17.1828833  25.4904079  36.0411981  17.5449220
  15.1171556  44.3265972  16.4637556  15.4318115  45.1402360  16.4715338
  15.5264970  43.9416190  17.1319715  15.2239654  44.3894674  16.5641648
  22.0696076  39.7436018  14.0341368  22.5407254  40.4576281  14.2031353
  22.4056255  39.1434769  14.5701237  22.1891191  39.7607483  14.1373744
  24.1573061  41.3537332  26.2133440  24.2670026  40.5645892  26.5690187
  24.4863957  41.2643268  25.4107778  24.2225467  41.2243185  26.1475831
  18.9865571  24.5163489  20.9899463  19.1193477  23.7194482  21.3180438
  19.3710724  25.0429892  21.5697738  19.0621900  24.4763406  21.1242966
  22.7070022  39.5353953  20.7969060  22.1590968  38.9111836  20.5289126
  23.1683051  39.7248225  20.0813140  22.6937232  39.4713003  20.6519492
  22.0597926  21.4393815  17.5880556  21.2543890  21.3291545  17.9048394
  21.9304662  21.5406271  16.7310422  21.9218059  21.4377485  17.5088596
  25.5163887  27.6039307  18.1820253  24.9326876  28.1048514  17.7697820
  25.8368181  27.0968863  17.5484576  25.4777062  27.6031142  18.0278760
  16.6454018  24.5122664  19.2377356  17.1898431  24.1713791  19.8281698
  16.6990954  25.3708126  19.3798641  16.7343137  24.5877923  19.3459230
  12.4584577  38.2739080  16.1116164  13.0629434  38.2334914  15.4829985
  12.2511889  39.1210232  16.1420220  12.5173474  38.3927083  16.0232281
  22.2728349  40.5405025  17.3278402  23.0926723  40.3967991  17.5894697
  21.9922426  41.1651224  17.8694840  22.3525092  40.6115377  17.4466341
   7.6935859  37.2573698  15.9815087   7.5960137  36.4469969  16.2905144
   8.4764729  37.2365491  15.5961356   7.7951995  37.1340788  15.9701950
  38.7441999  48.1969877  10.2921278  38.7136003  49.0514514  10.4639547
  39.3423348  47.8965170  10.8507422  38.8279157  48.2786374  10.3996080
  31.9441684  47.2845528  15.0474208  31.0879580  47.4454026  15.0983325
  31.9909338  46.4137592  15.0679269  31.8240795  47.1796330  15.0580274
  26.3282824  56.8208246  10.8111440  25.5765723  56.4423784  10.5827485
  26.7768835  56.8526679  10.0630250  26.2832491  56.7693853  10.6668942
  35.2535401  53.5532054  24.6534665  35.9602168  53.0584084  24.7821599
  35.4423336  53.9941135  23.9237323  35.3863306  53.5450404  24.5643710
  31.7807784  57.2433615   6.2396987  31.4459152  57.9210537   5.8041209
  32.2934654  56.8538927   5.6513859  31.8073365  57.2858194   6.0883779
  31.3212075  59.1947884  12.1808099  31.7051454  59.7634783  11.6412874
  31.2571216  58.4697394  11.7013915  31.3685502  59.1723347  12.0301961
  34.7893505  49.3437572  17.6905860  35.3349465  50.0222659  17.7499830
  34.7310381  49.2025033  16.8307442  34.8609419  49.4229574  17.5717921
  27.9067580  56.8326638  13.0774213  28.0077943  56.0226992  13.3871340
  27.3109325  56.7383584  12.4473891  27.8340119  56.6991666  13.0300451
  36.5658574  50.7722179   8.5639588  36.4498100  51.5229865   8.9931726
  37.3614460  50.5146132   8.8135675  36.6663163  50.8457026   8.6643680
  27.7468319  61.7504227  14.4789069  28.3905775  62.1917391  14.8685227
  28.0724575  60.9457653  14.3919327  27.8900148  61.6969422  14.5234546
  21.1032624  52.8546925  12.7026546  20.8682809  52.0214577  12.5958815
  21.2418265  53.1351590  11.8887747  21.0888287  52.7730428  12.5668901
  23.4022712  45.0232655  15.6010854  22.7827743  44.4325302  15.4320869
  23.3006575  45.6144090  14.9675177  23.2960387  45.0236738  15.4815843
  28.4488899  54.7616202   9.8508930  28.7704740  55.3021409   9.2470238
  29.0960996  54.1912973   9.9831220  28.5914954  54.7575377   9.7815966
  30.4990607  46.7632197   9.9343317  31.1970772  46.9420325  10.4264780
  30.8142940  46.2402536   9.3113706  30.6485944  46.7125969   9.9145327
  23.1291845  48.5684937  17.8454423  23.0050541  49.1547382  18.4804242
  23.7810129  48.0745133  18.1466698  23.2065494  48.5823741  17.9840352
  30.6878543  53.1502642   9.9223108  31.1272178  52.5419743  10.3677881
  30.5383206  52.7710015   9.1508573  30.7300008  53.0041113   9.8742276
  28.1550186  51.7446654  17.1241934  28.7999188  51.2519097  16.8052882
  28.3951963  51.8871440  17.9508012  28.2860771  51.6924096  17.1991467
  30.6936277  54.5901560  16.7748827  30.9759520  53.7952965  16.5535582
  31.4222437  55.0682147  16.7953888  30.8425841  54.5436157  16.7451842
  28.6717471  42.1324594  14.0164592  28.3420801  42.5835737  13.3468290
  27.9962473  42.0540757  14.5637598  28.5227907  42.1875729  13.9987815
  34.2887879  51.5029823   6.8753878  34.2039174  52.3590790   7.0203447
  34.7772262  51.2274147   7.5436037  34.3476776  51.5887145   6.9955959
  35.8793879  38.1210117  12.2614202  35.5647320  38.8113595  12.6934625
  35.3620820  38.0654899  11.5599703  35.7558349  38.2145005  12.2211151
  35.2206312  48.1214618   8.3751613  34.6917784  48.3374251   9.0348919
  35.7431332  48.8150756   8.2952582  35.2194765  48.2557754   8.4607212
  40.6754365  53.6960922  13.7484657  39.8452068  53.9071566  13.9118074
  40.6263618  52.8697977  13.4726941  40.5461101  53.6050528  13.7322023
  27.1105920  52.0177834   7.1759081  26.5263135  52.5227866   7.5824945
  26.7076015  51.7920221   6.4355673  26.9645224  52.0586083   7.1264106
  22.6649949  57.7332595  13.9782752  22.1817527  58.4583085  13.9542336
  23.4773267  58.0308725  14.0892910  22.7140697  57.8834949  13.9910032
  28.7364103  56.5264776  16.5832567  28.2191045  56.1672191  15.9793875
  29.4338494  56.0026951  16.5938633  28.7629684  56.3962464  16.4962825
  32.3927695  56.9759590  22.5448740  32.4811041  56.7885731  23.3926950
  32.8217407  56.3297020  22.1453587  32.4689797  56.8522598  22.6120491
  29.9598155  56.2590750  21.5266402  29.3968989  55.8463360  22.0506063
  30.7219178  56.1843656  21.9459545  29.9892603  56.1868151  21.6659402
  31.5683135  48.2643486   5.6528001  31.8079138  48.4721470   4.8403345
  31.8898976  47.4600995   5.7616946  31.6520293  48.1757588   5.5488554
  26.8773425  40.1936882   9.4987539  27.6319393  40.5615199   9.2604590
  26.7000960  40.5676436  10.2666719  26.9627903  40.3035070   9.5772428
  25.5194146  58.2488771  14.1303032  26.2214725  57.7340760  14.1875789
  25.4391629  58.5762923  14.9349907  25.6117907  58.2202998  14.2575824
  40.1708324  46.3431323  17.5435079  39.3336745  46.4133510  17.7782673
  40.1396555  46.3455817  16.6709381  40.0426606  46.3541550  17.4494627
  26.5673053  48.4864358  23.2583447  26.7393556  48.3770253  24.1068729
  27.1042410  49.1318764  23.0214640  26.6718057  48.5656360  23.3488544
  25.2330490  42.6007201   6.1965652  25.0506063  42.8179082   5.3706645
  26.0956103  42.7146214   6.2524267  25.3335079  42.6497099   6.0820139
  24.8444922  54.4395123  13.6388640  25.6833821  54.6718056  13.6862402
  24.8756691  53.5699435  13.5695676  24.9726639  54.3452070  13.6353285
  25.4697625  54.8595998  17.9401946  26.0095849  54.7167130  18.6105318
  24.7867571  55.2592749  18.3085972  25.4489778  54.8975669  18.0936367
  30.9130209  39.6033612   9.2314676  31.6416369  39.4249567   8.7852832
  31.0025102  40.4451692   9.4421854  31.0336871  39.7017490   9.1968194
  34.8938509  50.5386999  13.1346970  35.6496024  50.9718513  13.1735879
  35.0000834  49.8891769  13.7081606  35.0208680  50.5064483  13.2244996
  37.9318681  54.3660276  13.8849373  37.4953912  54.3697019  14.6408345
  37.5981596  55.0465775  13.4528951  37.8181300  54.4672732  13.9330206
  32.5047754  56.4068609  25.2092523  33.2888171  56.5199457  25.5748266
  32.3044349  55.5809746  25.4051209  32.5913780  56.3015329  25.2926909
  20.8734770  51.0796289  18.0936367  20.6073185  50.2635406  18.2527358
  20.8873334  51.1249445  17.2231883  20.8359492  50.9653194  17.9889849
  37.8516163  41.4074104  16.1278801  38.4942072  41.4772209  16.7140716
  38.1039184  40.7403327  15.6258343  37.9838296  41.3200453  16.1406080
  24.7792517  45.8781374   4.7088125  24.0650694  45.5919553   5.1210558
  25.2636485  46.2178000   5.3494513  24.7451880  45.8863023   4.8643760
  25.6233376  44.6174668  20.7403375  24.9305173  44.1471647  20.9864107
  26.2393703  44.3912972  21.3145082  25.6117906  44.5141799  20.8612528
  32.6618147  58.3178711  18.8558979  31.8633393  58.0778211  19.1132848
  33.1104159  58.3693104  19.6026027  32.6092759  58.2901102  19.0043903
  41.0663027  51.0841196  12.7769010  41.7279461  50.5231865  12.6764919
  40.4254439  50.5893227  13.1021701  41.0691894  50.9277605  12.8101351
  31.9539834  54.3811328   5.0849934  32.3690983  54.0496351   4.3934429
  31.1231764  54.1480230   4.9570070  31.8927843  54.2982584   4.9640781
  21.2828183  51.8655069  15.3748112  21.1003756  51.8401955  14.5220404
  22.0177852  52.3354007  15.4137020  21.3642247  51.9316431  15.2546030
  37.3527857  52.1006579  12.5180999  37.5883447  52.2451778  11.6907850
  37.5017421  52.8648987  12.9112513  37.4093661  52.2345633  12.4544603
  24.3473935  48.5840072  21.8830220  25.0713907  48.5693102  22.3695115
  24.4490071  49.2935427  21.3852188  24.4692144  48.6864775  21.8809007
  39.1818314  50.9408245  10.3550603  39.5126531  51.4735885   9.7490698
  39.7551402  50.9947132  11.0112554  39.3151993  51.0277813  10.3628385
  31.7218884  52.0639156  26.7479167  30.9291865  52.3782668  26.9331787
  31.8367811  52.2790625  25.9099952  31.6214295  52.1422993  26.6517502
  34.3950203  48.7873147  11.0374183  34.4897058  49.5262441  11.4913809
  33.7709047  48.3590623  11.4708748  34.3159233  48.8334468  11.1682331
  32.6502677  51.9659360  21.6864464  33.2241539  51.3286604  21.8413028
  32.5717481  51.9663442  20.8174122  32.7235912  51.8724471  21.5810875
  21.2499094  48.7448569  15.5247178  21.8272596  48.6085020  16.1639423
  20.5513155  48.2884354  15.7792763  21.2320115  48.6570836  15.6569468
  34.6473225  50.6321887   4.2711135  34.5653387  50.7024074   5.1366122
  35.2852945  51.1951631   4.0794876  34.7293062  50.7260858   4.3701085
  28.0066396  50.3982625  13.7385661  27.7485640  49.5654360  13.7116961
  28.0614879  50.6240238  12.8978162  27.9766174  50.3080396  13.6105798
  33.0867446  42.5011076  13.8389754  32.3823773  42.0120261  13.9973673
  33.1352420  42.5133550  12.9678198  32.9897498  42.4300724  13.7329094
  26.9801108  47.9520387  14.2250556  26.4050699  48.1112556  14.8614517
  26.6036784  47.3155797  13.7619007  26.8403920  47.8818200  14.2505115
  30.6474397  46.4243737  19.0842935  30.2588829  45.9997955  18.4295126
  29.9829095  46.6725886  19.5919961  30.4921324  46.3982458  19.0630802
  40.2897666  46.1818741  11.8590765  40.0334231  45.3698683  11.6688647
  41.1326980  46.1896309  11.6320952  40.3763691  46.0630739  11.7975582
  16.7257927  47.5960462  12.2394997  16.8118179  47.2192331  13.0208527
  17.3533724  47.2220908  11.7614955  16.8314478  47.4845944  12.2840474
  34.4700758  40.1218366  16.5966919  34.8511270  39.4396537  16.9834793
  33.6664042  39.8327968  16.4142583  34.4077220  39.9785414  16.6270975
  31.7513335  50.6542341   7.2819742  32.5653974  50.9457234   7.1702513
  31.6872476  50.0002204   6.7078034  31.8616074  50.6007536   7.1808579
  37.9722825  53.3368337  21.6949317  37.7361462  52.5056402  21.5761378
  38.6166054  53.2853945  22.2804161  38.0317496  53.2066025  21.7635211
  27.6221243  54.1263859  12.4092054  28.2595190  53.8875606  12.9543847
  28.0476315  54.3301018  11.6745214  27.7797409  54.1214869  12.3809211
  22.3133885  56.3652195  16.2926357  22.3538031  56.6367046  15.4646137
  22.8728410  56.8894103  16.7084145  22.4017231  56.4827950  16.2318246
  28.2624058  49.3466149   6.7466943  28.6469211  49.1273855   7.4983488
  28.0135678  50.1729094   6.8768019  28.2826131  49.4364295   6.8768019
  28.4292599  42.6272564  26.4629527  28.1146040  43.3972127  26.1999090
  28.1082531  42.0642820  25.8781754  28.3351518  42.6582832  26.3370877
  38.9959246  53.1212786  17.7577612  38.6905063  53.8540843  18.1190927
  38.2765461  52.7150716  17.4770398  38.8446588  53.1694519  17.7690749
  30.0042715  54.6036281  14.0885840  30.0781723  54.4411453  14.9427690
  30.8212221  54.7926471  13.8446322  30.1359074  54.6073024  14.1783865
  44.6961038  49.7605787  17.0845956  44.6285538  49.7801746  16.2148542
  44.6816700  50.6036114  17.3101626  44.6839794  49.8879522  16.9898433
  23.7648472  54.9494144  11.1180283  22.9386589  55.1955881  10.9914562
  23.8260463  54.8706225  11.9842341  23.6522639  54.9739093  11.2269228
  25.9824495  41.0163085  12.0775724  25.1146921  41.0885685  12.1433333
  26.2699700  41.8185164  12.2663699  25.8964244  41.1457232  12.1150490
  35.1057384  41.1640945  20.4087045  35.8510976  40.9750755  19.9950471
  34.6894689  41.6899183  19.8500902  35.1542358  41.2143090  20.2651619
  28.5447301  57.5671024   8.8199313  28.8345599  57.1760006   8.0958540
  29.2750782  57.7487729   9.2604589  28.6954185  57.5364838   8.7782120
  42.4819655  48.5350173  15.3592550  43.0327577  47.9018242  15.5989642
  42.4663770  49.0665566  16.0508055  42.5604851  48.5199121  15.4971409
  29.1342046  52.3688770  19.9052444  28.6353740  53.0804538  19.9837332
  29.9442270  52.6889437  19.8670606  29.1798153  52.5215619  19.9109012
  26.4853216  59.5438407  11.8859463  26.2653512  59.2535762  12.6786130
  26.2647738  58.8853362  11.3577375  26.4200811  59.4038115  11.9248372
  25.3970164  51.6311723  14.1515165  25.1083412  51.0049195  14.6860892
  26.2653512  51.5732011  14.2179845  25.4830415  51.5299268  14.2406119
  36.1848061  46.7746507  14.4697146  35.8412827  46.0536842  14.8204396
  36.2841104  46.5660358  13.6275505  36.1490104  46.6370710  14.3968827
  28.6521172  60.9167797  10.6690155  29.3045230  60.3844239  10.8981181
  27.9546781  60.5636449  11.0558029  28.6451890  60.7857320  10.7602323
  25.6002437  53.2706974  10.0757530  26.3548405  53.6520014  10.2892992
  25.0073050  53.7218118  10.5304226  25.6239150  53.3935802  10.1740408
  36.6461090  53.2372211  10.0121135  37.2119123  53.8965421   9.9279678
  35.9988994  53.5821909  10.4837537  36.6339847  53.3854152  10.0693891
  28.0609104  45.2269815  25.2014742  27.2508880  45.5327595  25.0904584
  28.5383791  45.9475397  25.3167326  28.0112583  45.3784416  25.2021813
  26.9200664  54.4415536  15.4497645  26.3981417  54.5815828  16.1349510
  27.3074684  53.6826200  15.6399762  26.9004364  54.3501060  15.5798722
  23.9091848  44.4921345   9.5192600  23.6216643  44.1222615   8.7824547
  24.5962316  44.9616200   9.2576305  23.9680745  44.5068314   9.3707675
  33.1167669  56.1810995   9.4358214  32.8754344  55.4478856   9.0285279
  33.2969001  56.7297852   8.7824547  33.1075292  56.1533386   9.2788437
  28.3466989  51.4719555  10.8479136  28.1509772  52.0794289  10.2539439
  28.5701335  50.7787499  10.3670810  28.3501630  51.4597080  10.6895217
  26.7445519  48.3574293  10.9660004  27.4668171  48.5215451  10.5063810
  26.2653512  49.0783958  10.8599344  26.7809250  48.4872522  10.8825618
  34.7039027  44.6938092  16.3456689  33.8650127  44.7199370  16.1094953
  34.7743394  45.3408827  16.9262036  34.5907420  44.7934217  16.3965806
  24.3953136  50.7632365  20.0714144  24.9074233  51.0416618  19.4222904
  24.1089478  51.5021659  20.4376957  24.4287999  50.9134719  20.0304022
  33.1508305  41.5923469  11.0784305  33.8534658  41.3931217  10.6004264
  32.8852494  40.8199411  11.3853149  33.2154937  41.4486435  11.0529747
  38.5796551  49.9006078  13.6317931  38.4930525  50.0561504  14.4852710
  38.1247030  50.5444154  13.2577336  38.4999807  50.0181833  13.7025038
  21.4820042  45.2702557  10.3677881  21.5836179  46.0728718  10.6958856
  22.2775929  45.0689893  10.0700961  21.6147948  45.3588456  10.3713236
  27.9136861  42.8558754  20.1315186  27.7220058  42.8713888  20.9814609
  28.7635457  43.0522428  20.1081841  28.0112583  42.8873105  20.2538481
  22.2983774  45.3849735  18.1099002  22.1569266  44.5333676  18.2343510
  22.5824338  45.4278396  17.2861208  22.3191620  45.2649485  18.0066626
  32.4522367  47.2216825  12.2543491  32.2057081  47.1412576  13.0880280
  32.7807490  46.4370293  12.0606018  32.4643610  47.0943091  12.3491014
  36.3470415  53.9300185  16.0430272  36.2084775  54.6281231  16.5479014
  35.5670413  53.7748841  15.6866454  36.2113642  54.0100351  16.0656546
  34.6848501  50.2296560  22.2952654  34.6796539  49.3576377  22.2995080
  35.3909494  50.4284729  21.8222109  34.7893505  50.1300434  22.2259689
  28.4119394  49.9573544  21.6666474  28.5562770  50.5374752  21.0309584
  28.7595042  50.3349841  22.3716328  28.4846855  50.0994248  21.6765469
  30.5839311  49.1563712  19.4491605  29.8362625  49.3494727  19.0439883
  30.7380836  48.3308932  19.2115727  30.4961739  49.0628824  19.3537011
  27.4847149  58.1476316  18.5327501  27.6336713  57.5879232  17.8800905
  28.2647151  58.2268318  18.9160019  27.6221243  58.0761881  18.4924450
  37.8423788  53.2878439   6.8046771  37.4630597  52.5015576   6.7976060
  37.1790034  53.8365296   6.6618415  37.6882263  53.2523263   6.7827568
  30.0100450  58.3190959  19.8111991  29.9344121  57.6499769  20.3662780
  29.9390309  59.0208747  20.3252658  29.9881056  58.3235866  19.9688840
  30.8241088  43.0514263  20.3387009  31.2813702  43.7838237  20.4659801
  30.8997417  42.6280728  21.0974265  30.9032058  43.0971501  20.4688086
  23.0674080  43.2980083  21.4276453  22.5316269  42.6860441  21.7437220
  23.1291844  43.8728219  22.0810119  22.9969712  43.2927011  21.5711880
  35.2968414  36.2304138  14.2080852  35.4151982  36.6880602  13.4748155
  35.1230590  35.4249400  13.9217070  35.2887585  36.1797910  14.0581786
  30.6670696  56.8391958  10.6435597  31.4320588  56.5701601  10.3218262
  30.5648786  56.3541968  11.3605660  30.7652192  56.7281522  10.7015425
  28.7023466  45.0416367  17.1828833  27.9119541  44.8607827  17.5046169
  29.0984089  44.2643320  17.1659128  28.6440342  44.9003828  17.2281381
  33.1889357  53.8704141   2.6235547  33.9562342  53.9304266   2.2141398
  32.7420666  53.2984583   2.1391865  33.2362784  53.7940717   2.4913257
  34.0867153  52.6758797  14.9088279  33.4112154  52.4444029  15.4101666
  34.0959529  52.0679980  14.2830384  33.9885657  52.5517722  14.8904431
  31.2161296  47.5176626  21.6652332  31.1520438  48.3786583  21.5372469
  31.3558484  47.2008619  20.8647883  31.2276767  47.5976793  21.5280545
  36.0883887  55.5323930   7.1398457  36.1703724  56.3390916   6.8159908
  36.5733629  55.5519889   7.8639230  36.1721045  55.6544592   7.1985356
  29.8980390  50.2108766  15.8068535  29.4742639  50.4113265  15.0707553
  29.7225246  49.3637613  15.9192835  29.8091271  50.1157547  15.7142225
  29.3992084  61.7259278  18.2689992  29.8888014  61.0270068  18.0865657
  28.8276316  61.4283148  18.8566050  29.3876614  61.5785502  18.3291033
  25.1862835  50.7060817  11.2396507  25.3427455  50.6407620  12.0952499
  25.5263428  51.4809370  11.0275187  25.2596070  50.8110015  11.3351102
  35.5959087  54.2921348  27.2216783  36.4093953  54.0206497  27.3821915
  35.4354054  53.9928888  26.4176979  35.6929036  54.2076274  27.1262189
  29.8928430  55.4736052   7.3929899  29.9621250  54.6150591   7.5322899
  30.6716885  55.6907933   7.0648923  30.0181280  55.3788916   7.3647056
  32.8731249  44.9755005  20.1612171  33.0873219  44.3365919  19.6075525
  32.2565149  45.4200829  19.7320033  32.8136579  44.9465149  20.0162602
  34.2835917  57.8973753  11.6066392  33.8915709  57.5940469  10.8889258
  34.4388989  58.7342843  11.4171346  34.2489507  57.9757590  11.4722889
  21.7597097  47.8895767  11.5557275  22.1396062  48.3080312  10.8917542
  21.1852462  48.4709223  11.8626118  21.7308422  48.0373626  11.5034016
  35.0370337  46.5844070  21.0995478  34.2247019  46.2769961  21.1808651
  35.4960272  46.1043070  21.6638190  34.9850722  46.4680563  21.1950072
  34.4475592  54.4623742  11.5472423  34.0890247  54.6338385  12.3236455
  33.9614303  54.9236948  10.9900421  34.3234289  54.5562713  11.5797692
  32.2645978  38.0854941  15.1499514  31.3939536  38.0593662  15.1032823
  32.5186319  37.9132133  14.3325360  32.1739538  38.0565084  15.0219651
  29.2363957  50.1422908   4.0872657  29.5256482  50.9187790   4.3616231
  29.3235756  49.6311639   4.7887156  29.2918214  50.1814826   4.2315155
  32.1323845  47.9904142  25.8824181  32.6023476  48.6146258  26.2692055
  32.1785725  47.3221117  26.4417395  32.2091721  47.9838822  26.0224252
  29.2895118  40.0961169  16.6072984  28.7733607  39.4041361  16.7324563
  28.7289047  40.7631946  16.5535583  29.1301632  40.0924427  16.6179050
  31.3587352  40.6354129  18.4365837  30.9719105  40.6603161  19.2179367
  30.8720289  40.0695808  17.9840353  31.2299861  40.5549880  18.4853741
  35.6080331  55.3527638  22.4939623  36.2460052  54.8587834  22.1602079
  34.9654423  55.2805039  21.9091850  35.6074558  55.2686647  22.3581978
  37.3337331  47.2016784  17.0605539  36.9064940  47.1143133  16.3053639
  36.6963384  47.3094560  17.6460383  37.1766939  47.2049444  17.0350981
  31.0244494  37.5221115  20.7276097  31.6537612  38.0581415  20.4497167
  31.1930356  37.4298474  21.5789662  31.1422288  37.5882477  20.8124625
  30.8258409  42.3092309  23.0002508  31.6531838  42.0377458  23.0561123
  30.8466255  43.1053151  23.3566326  30.9511259  42.3872064  23.0617691
  35.6634588  56.0447446  19.1344980  36.4526966  55.6936511  19.2547062
  35.8378186  56.8583835  18.8721614  35.8054870  56.1133304  19.1132848
  25.4027898  49.4556172  16.1872769  24.5615905  49.3560046  16.3951663
  25.6117906  50.2251652  16.5387090  25.3092591  49.5548216  16.2700084
  22.8803465  47.0775709  14.0157520  22.4860163  47.1518721  13.2407629
  22.3243582  47.4633655  14.5665881  22.7406278  47.1457484  13.9825179
  34.5168412  40.0557003  13.6961399  34.7218006  39.9879311  14.5418396
  34.1894836  40.8615824  13.6282576  34.4983660  40.1642944  13.8121054
  29.2144563  47.3837571  15.4370367  28.9107701  46.8293560  16.0380774
  28.5123984  47.5629781  14.9498401  29.0660773  47.3282354  15.4540072
  28.2710660  44.6938091  10.0015068  28.5470395  43.9757004   9.5892636
  28.8709330  45.2923011   9.7936174  28.4003925  44.6758462   9.9095830
  27.2762914  54.5987292  20.1442464  27.1683269  54.6089354  21.0104522
  27.4858696  55.4242072  19.9547418  27.2913025  54.7228367  20.2446556
  37.7702100  40.6088767  13.1764164  37.1576413  41.0959170  13.5617896
  37.8666275  39.9332258  13.7201815  37.6939997  40.5807076  13.3143022
  31.7721181  42.3651609   8.2761663  32.2264927  42.5362169   9.0009508
  32.2461227  41.7519719   7.8759439  31.9089501  42.3002494   8.3235425
  25.2936706  51.8499934  17.6064402  24.7024639  52.4909433  17.5767417
  26.0557730  52.2737552  17.5795701  25.3184967  52.0075773  17.5979549
  25.6897329  43.0101932  18.2732420  26.1498811  43.0840862  19.0107543
  25.7353436  43.8083186  17.9232241  25.7647884  43.1396079  18.3305176
  27.3380679  43.6768627  22.8404447  26.9466244  43.0301974  23.2760224
  27.5066542  44.2680062  23.4598702  27.3051589  43.6682895  22.9967153
  41.4127128  51.6805704  18.6041680  41.4710252  52.1292353  19.3501657
  40.7793595  52.0904517  18.1671760  41.3278423  51.8079439  18.6494228
  35.0526222  57.3009246  15.0396426  34.8545911  57.7900061  14.3452638
  34.4313934  57.5050488  15.6180560  34.9313787  57.4025784  15.0219650
  29.1134201  49.0694143   9.3806671  29.8576246  49.4568419   9.6189621
  29.2594897  48.2251568   9.5447158  29.2444786  49.0024616   9.4400640
  31.0313776  40.8644402  14.4138532  30.1849821  41.0367210  14.2879882
  31.0284909  40.0593746  14.7504360  30.9060926  40.7705431  14.4449659
  32.1012077  44.6419616  15.2800590  31.6272031  44.1161378  15.7905901
  32.4730213  44.0949089  14.7115452  32.0861966  44.4835613  15.2715737
  22.4785107  46.6391123  20.6484136  23.3410720  46.5386832  20.5621466
  22.1476890  46.0585832  20.0869708  22.5570303  46.5382750  20.5529542
  38.3648807  49.7021992  16.6907371  38.1247030  48.8628407  16.6949797
  38.8440814  49.7822159  17.4148144  38.4000991  49.5903392  16.7982173
  34.0295576  45.5356171   8.3426344  33.5018595  45.6184915   7.6532053
  34.4891285  46.2774042   8.3390988  34.0197427  45.6576833   8.2401039
  40.3653994  46.4823449  14.6436630  40.1263764  46.4419283  13.8057414
  40.5287896  47.3294601  14.7702351  40.3544298  46.6015534  14.5390112
  36.9700024  50.8673398  20.5741675  37.6934223  50.4145925  20.3952695
  36.7049987  51.1478064  19.7914003  37.0381298  50.8424367  20.4320390
  25.8386893  45.4633572  17.3094554  25.2139963  45.4751964  16.7020507
  25.5032488  45.9393747  17.9585794  25.6972385  45.5352089  17.3151122
  26.0228642  43.8058690   3.3667239  25.6741446  44.4578416   3.8298788
  25.5425087  43.7915803   2.6391110  25.8998885  43.9001744   3.3278330
  22.5512568  53.5234032  18.7498318  22.0212493  52.8326471  18.7993293
  22.8237662  53.5144217  17.9211027  22.5137291  53.4201164  18.6345734
  33.5832659  54.1059734   7.4736001  34.3066858  54.5717847   7.3300574
  33.1433250  54.1733344   6.7233598  33.6248351  54.1843571   7.3420782
  32.7518814  50.9657277  18.7236690  32.1375807  50.4215327  19.0185325
  33.2686099  50.4521513  18.2442506  32.7374476  50.8093686  18.6960918
  31.9915111  52.0361547  16.4580988  31.5642719  51.4111265  16.0246424
  31.9840055  51.7536469  17.2839996  31.9274252  51.9014327  16.5160816
  25.1077638  47.0726720  19.5269422  25.2671125  46.3170044  19.9321144
  24.9270532  47.6217659  20.1810160  25.1042997  47.0420533  19.6832128
  33.0497941  39.2387955  20.0820212  32.5538502  39.4351629  19.3911779
  33.8067003  39.6380624  19.9109014  33.0884766  39.3265689  19.9540349
  30.3200821  42.9130301  16.6723522  30.3443308  42.3790413  15.9836302
  30.5712294  42.4047610  17.3349113  30.3610739  42.7591205  16.6688167
  17.8308411  50.1961796  16.1066667  17.7251860  50.1508640  15.2418751
  17.0808631  50.5415577  16.3880951  17.7044014  50.2402704  16.0203996
  26.6002143  41.6401119  16.0529267  26.6400515  42.1410326  16.7663974
  25.7751808  41.7311513  15.7835190  26.4841669  41.7282936  16.1179805
  28.7831756  51.2061859  24.1549561  27.9327386  51.3433574  24.2907206
  28.9459884  50.4725638  24.5997263  28.6815619  51.1175961  24.2405161
  28.0216506  48.1561629  18.3503166  27.1908436  48.3235447  18.1438414
  27.9668024  47.7797580  19.1352051  27.8905921  48.1251361  18.4351694
  25.8300290  41.6470522  23.9859576  26.4552993  41.1032655  24.2589009
  25.3750770  41.1665440  23.4167367  25.8548550  41.4960003  23.9421170
  26.3952550  46.4317221   8.8793283  26.5355511  46.9289685   9.5821925
  26.8935083  45.7303515   9.0207497  26.4893631  46.4019200   9.0044862
  26.4252773  47.2984332   6.2085860  27.0597852  47.8944757   6.1435322
  26.5078383  46.9987789   7.0231730  26.5309324  47.3425240   6.3188947
  39.4035338  49.8299809  19.0772224  39.9953179  50.4697060  19.1090423
  39.8394333  49.1322846  19.3664291  39.5553770  49.8218160  19.1253057
  28.0031755  43.2298307   6.1831302  28.3247597  42.7501390   5.5290565
  28.2658699  44.0397953   5.9922114  28.0897781  43.2788205   6.0586794
  31.2328728  54.2517182  19.7030118  30.7253819  54.8053028  20.1470749
  30.9355374  54.3125471  18.8848893  31.1133613  54.3423493  19.6478575
  33.3990910  42.6170501  18.5454781  33.8245982  42.1643028  17.9338308
  32.7847904  42.0630572  18.8219569  33.3719556  42.4684477  18.4959807
  22.9305761  49.4952173   9.4775406  23.4397990  50.0916680   9.8586712
  23.4040033  49.2278146   8.7951826  23.0749136  49.5437988   9.4329929
  33.8436509  58.1680439   7.6334062  33.1265818  57.9941302   7.1681299
  34.4943246  57.9333012   7.1009548  33.8338359  58.1076232   7.4863280
  31.8385133  39.0885601  11.9545358  31.1953451  38.9383247  12.5230497
  31.4984540  38.8427946  11.1894463  31.6930211  39.0297723  11.9248374
  36.4284480  47.0445028  11.3775367  35.7575670  47.5874730  11.2488433
  37.1224230  47.5139883  11.1357062  36.4313347  47.1943299  11.3230895
  30.4771214  59.1841740  16.6087125  30.2536868  58.4260569  16.9771152
  29.9881057  59.2139761  15.8867565  30.3714663  59.0763964  16.5563866
  36.5912607  43.5000911  14.2865740  36.9440217  43.0730634  14.9611539
  35.7327409  43.4151755  14.4166817  36.5162052  43.4245652  14.4060751
  25.2896292  46.1308431  12.3448587  24.5708281  46.5472564  12.6121450
  25.6608655  46.6962670  11.7940225  25.2388224  46.2757713  12.3031394
  34.5895873  46.7636280  18.2350582  34.5693800  46.5819575  19.0885361
  34.6375074  47.6348299  18.2110166  34.5930514  46.8652818  18.3573877
  32.5342203  53.3523472  24.1599059  32.4938058  52.7073149  23.5744215
  33.3465521  53.2960089  24.4724471  32.6485356  53.2482439  24.1196008
  29.1249670  59.4042198  14.0624210  28.7110069  58.7416328  13.6728052
  29.8097045  59.5520057  13.5419904  29.1648042  59.3282856  13.9280707
  32.4914965  58.5632283  14.8147826  32.0931248  58.6734554  14.0468647
  31.8766184  58.7714350  15.3974386  32.3413854  58.6105851  14.7879126
  31.0642867  45.1706431   7.6821966  30.4707706  45.4923428   7.1306533
  31.1018144  44.3247526   7.4743072  30.9817256  45.0930759   7.5704737
  38.0236667  38.6219323  15.2150053  37.5167532  37.9148463  15.1471230
  38.8204101  38.2912512  15.3451129  38.0663907  38.4692475  15.2249048
  33.9400683  45.1285936  11.1123716  33.7114376  45.1518637  10.2702075
  34.1998759  44.3043403  11.2318727  33.9446871  45.0102015  11.0048914
  28.2219912  46.9820409  20.7148817  27.7098815  46.3741592  21.0733848
  28.0499408  47.6977001  21.1822792  28.1209549  46.9983708  20.8365040
  23.0685626  45.4257984  23.3651178  22.8988217  46.0859359  22.8199385
  22.6251576  45.6364545  24.0863668  22.9784960  45.5543966  23.3912808
  26.9945446  43.6662482  12.4077912  27.4702812  44.0279562  11.7728093
  26.4934045  44.3218949  12.6878055  26.9910805  43.8156671  12.3554653
  40.2256807  53.1384250   8.1990917  40.6090413  53.8875606   8.4289014
  39.4300921  53.3850070   7.9402906  40.1650589  53.2853944   8.1948491
  32.0988982  44.9044653  23.1551072  32.6560412  44.6758463  22.5229538
  31.7750047  45.6650319  22.8786285  32.1335392  44.9828490  23.0207569
  19.9687691  48.3304849  18.6239668  19.4214410  47.6605495  18.7420537
  20.7580069  47.9634697  18.6883136  20.0039874  48.1769836  18.6508369
  29.8172099  47.9912307  24.1203079  30.5683426  48.3063983  24.4342633
  30.0094676  47.7891477  23.2937001  29.9563513  48.0079688  24.0446475
  29.0372099  45.8103682   5.7751296  29.4171064  45.8283311   4.9902411
  28.2964695  46.2557670   5.6542143  28.9840937  45.8785456   5.6414864
  36.6657389  44.1185873  11.3626875  36.6651616  43.9634529  12.2211151
  36.4613569  44.9648860  11.3068260  36.6357167  44.2206494  11.4814814
  18.7274660  47.5425657  15.7785691  18.5496421  47.0902266  16.5040607
  18.4393682  48.3451819  15.9624169  18.6587613  47.5948215  15.9129194
  34.3898241  48.7983375  15.0163082  34.8851907  48.0806370  14.9767102
  33.5798017  48.4954172  14.9017569  34.3442135  48.6481021  14.9936807
  29.8356853  52.6481188   7.1660086  29.0268176  52.3247861   7.1193396
  30.3431762  51.9414410   7.0988335  29.7906520  52.4962504   7.1490380
  20.4647130  50.0753381  12.8907450  19.5992650  50.0639071  12.7790222
  20.5645946  49.8883604  13.7378590  20.3521297  50.0459442  12.9996395
  36.4550060  51.5487062  17.7040210  36.8805132  51.0261484  17.1510635
  36.0906980  52.1467900  17.1828833  36.4636663  51.5597289  17.5449220
  26.0904140  59.8451280  16.4637556  26.4050699  60.6587668  16.4715338
  26.4997553  59.4601498  17.1319715  26.1972238  59.9079982  16.5641648
  33.0428660  55.2621326  14.0341368  33.5139838  55.9761589  14.2031353
  33.3788838  54.6620077  14.5701237  33.1623775  55.2792791  14.1373744
  35.1305644  56.8722640  26.2133440  35.2402610  56.0831200  26.5690187
  35.4596541  56.7828576  25.4107778  35.1958050  56.7428493  26.1475831
  29.9598155  40.0348797  20.9899463  30.0926060  39.2379790  21.3180438
  30.3443307  40.5615200  21.5697738  30.0354484  39.9948714  21.1242966
  33.6802606  55.0539261  20.7969060  33.1323552  54.4297144  20.5289126
  34.1415635  55.2433533  20.0813140  33.6669816  54.9898311  20.6519492
  33.0330510  36.9579123  17.5880556  32.2276474  36.8476853  17.9048394
  32.9037245  37.0591579  16.7310422  32.8950643  36.9562793  17.5088596
  36.4896470  43.1224615  18.1820253  35.9059459  43.6233821  17.7697820
  36.8100764  42.6154171  17.5484576  36.4509646  43.1216450  18.0278760
  29.0291270  42.0365210   8.4578928  29.8506964  42.2063523   8.2160622
  28.5660920  42.1912471   7.7345225  29.0822432  42.0846943   8.3150572
  27.6186601  40.0307972  19.2377356  28.1631014  39.6899099  19.8281698
  27.6723537  40.8893434  19.3798641  27.7075721  40.1063231  19.3459230
  23.4317160  53.7924388  16.1116164  24.0362018  53.7520222  15.4829985
  23.2244473  54.6395540  16.1420220  23.4906057  53.9112391  16.0232281
  33.2460932  56.0590333  17.3278402  34.0659306  55.9153299  17.5894697
  32.9655010  56.6836532  17.8694840  33.3257676  56.1300685  17.4466341
  18.6668443  52.7759006  15.9815087  18.5692721  51.9655277  16.2905144
  19.4497312  52.7550799  15.5961356  18.7684579  52.6526096  15.9701950
  49.7174583  63.7155185  10.2921278  49.6868587  64.5699822  10.4639547
  50.3155931  63.4150478  10.8507422  49.8011741  63.7971681  10.3996080
  42.9174268  62.8030836  15.0474208  42.0612163  62.9639334  15.0983325
  42.9641921  61.9322900  15.0679269  42.7973379  62.6981638  15.0580274
  37.3015407  72.3393554  10.8111440  36.5498307  71.9609092  10.5827485
  37.7501419  72.3711987  10.0630250  37.2565074  72.2879161  10.6668942
  46.2267984  69.0717362  24.6534665  46.9334751  68.5769392  24.7821599
  46.4155920  69.5126443  23.9237323  46.3595890  69.0635712  24.5643710
  42.2944658  74.7133192  12.1808099  42.6784038  75.2820091  11.6412874
  42.2303800  73.9882702  11.7013915  42.3418086  74.6908655  12.0301961
  45.7626089  64.8622880  17.6905860  46.3082049  65.5407966  17.7499830
  45.7042965  64.7210341  16.8307442  45.8342003  64.9414882  17.5717921
  38.8800163  72.3511946  13.0774213  38.9810526  71.5412300  13.3871340
  38.2841909  72.2568892  12.4473891  38.8072702  72.2176974  13.0300451
  47.5391157  66.2907487   8.5639588  47.4230683  67.0415173   8.9931726
  48.3347044  66.0331440   8.8135675  47.6395747  66.3642334   8.6643680
  38.7200903  77.2689535  14.4789069  39.3638359  77.7102699  14.8685227
  39.0457159  76.4642961  14.3919327  38.8632732  77.2154730  14.5234546
  32.0765208  68.3732233  12.7026546  31.8415392  67.5399885  12.5958815
  32.2150848  68.6536898  11.8887747  32.0620870  68.2915736  12.5668901
  34.3755295  60.5417963  15.6010854  33.7560327  59.9510610  15.4320869
  34.2739159  61.1329398  14.9675177  34.2692971  60.5422046  15.4815843
  39.4221483  70.2801510   9.8508930  39.7437324  70.8206717   9.2470238
  40.0693579  69.7098281   9.9831220  39.5647538  70.2760685   9.7815966
  41.4723191  62.2817505   9.9343317  42.1703356  62.4605632  10.4264780
  41.7875523  61.7587844   9.3113706  41.6218528  62.2311277   9.9145327
  34.1024428  64.0870245  17.8454423  33.9783125  64.6732690  18.4804242
  34.7542713  63.5930441  18.1466698  34.1798078  64.1009049  17.9840352
  41.6611126  68.6687950   9.9223108  42.1004762  68.0605050  10.3677881
  41.5115789  68.2895323   9.1508573  41.7032592  68.5226421   9.8742276
  39.1282769  67.2631962  17.1241934  39.7731772  66.7704405  16.8052882
  39.3684546  67.4056748  17.9508012  39.2593354  67.2109404  17.1991467
  41.6668861  70.1086868  16.7748827  41.9492103  69.3138273  16.5535582
  42.3955021  70.5867455  16.7953888  41.8158424  70.0621465  16.7451842
  39.6450054  57.6509902  14.0164592  39.3153384  58.1021045  13.3468290
  38.9695056  57.5726065  14.5637598  39.4960491  57.7061037  13.9987815
  46.8526462  53.6395424  12.2614202  46.5379903  54.3298903  12.6934625
  46.3353404  53.5840207  11.5599703  46.7290933  53.7330313  12.2211151
  46.1938896  63.6399925   8.3751613  45.6650367  63.8559559   9.0348919
  46.7163916  64.3336064   8.2952582  46.1927349  63.7743062   8.4607212
  51.6486949  69.2146230  13.7484657  50.8184652  69.4256874  13.9118074
  51.5996201  68.3883284  13.4726941  51.5193684  69.1235836  13.7322023
  38.0838504  67.5363142   7.1759081  37.4995719  68.0413174   7.5824945
  37.6808599  67.3105529   6.4355673  37.9377808  67.5771390   7.1264106
  33.6382532  73.2517903  13.9782752  33.1550111  73.9768393  13.9542336
  34.4505851  73.5494033  14.0892910  33.6873280  73.4020257  13.9910032
  39.7096686  72.0450084  16.5832567  39.1923628  71.6857499  15.9793875
  40.4071078  71.5212258  16.5938633  39.7362268  71.9147772  16.4962825
  43.3660278  72.4944898  22.5448740  43.4543624  72.3071039  23.3926950
  43.7949991  71.8482328  22.1453587  43.4422381  72.3707906  22.6120491
  40.9330738  71.7776058  21.5266402  40.3701573  71.3648668  22.0506063
  41.6951762  71.7028964  21.9459545  40.9625187  71.7053459  21.6659402
  42.5415718  63.7828794   5.6528001  42.7811722  63.9906778   4.8403345
  42.8631559  62.9786303   5.7616946  42.6252876  63.6942895   5.5488554
  37.8506008  55.7122190   9.4987539  38.6051977  56.0800507   9.2604590
  37.6733543  56.0861744  10.2666719  37.9360487  55.8220378   9.5772428
  36.4926730  73.7674079  14.1303032  37.1947309  73.2526068  14.1875789
  36.4124213  74.0948231  14.9349907  36.5850490  73.7388305  14.2575824
  51.1440907  61.8616631  17.5435079  50.3069328  61.9318818  17.7782673
  51.1129138  61.8641125  16.6709381  51.0159190  61.8726858  17.4494627
  37.5405636  64.0049666  23.2583447  37.7126140  63.8955561  24.1068729
  38.0774994  64.6504072  23.0214640  37.6450640  64.0841668  23.3488544
  36.2063073  58.1192509   6.1965652  36.0238646  58.3364390   5.3706645
  37.0688686  58.2331522   6.2524267  36.3067663  58.1682407   6.0820139
  35.8177505  69.9580431  13.6388640  36.6566405  70.1903364  13.6862402
  35.8489274  69.0884743  13.5695676  35.9459223  69.8637378  13.6353285
  36.4430208  70.3781306  17.9401946  36.9828433  70.2352437  18.6105318
  35.7600154  70.7778057  18.3085972  36.4222362  70.4160977  18.0936367
  41.8862792  55.1218920   9.2314676  42.6148953  54.9434875   8.7852832
  41.9757685  55.9636999   9.4421854  42.0069454  55.2202798   9.1968194
  45.8671093  66.0572307  13.1346970  46.6228608  66.4903821  13.1735879
  45.9733417  65.4077077  13.7081606  45.9941264  66.0249791  13.2244996
  48.9051264  69.8845584  13.8849373  48.4686496  69.8882327  14.6408345
  48.5714180  70.5651083  13.4528951  48.7913884  69.9858040  13.9330206
  43.4780338  71.9253917  25.2092523  44.2620754  72.0384765  25.5748266
  43.2776932  71.0995054  25.4051209  43.5646363  71.8200637  25.2926909
  31.8467353  66.5981597  18.0936367  31.5805768  65.7820714  18.2527358
  31.8605917  66.6434753  17.2231883  31.8092076  66.4838502  17.9889849
  48.8248747  56.9259412  16.1278801  49.4674655  56.9957517  16.7140716
  49.0771768  56.2588635  15.6258343  48.9570879  56.8385761  16.1406080
  35.7525100  61.3966682   4.7088125  35.0383277  61.1104861   5.1210558
  36.2369069  61.7363307   5.3494513  35.7184463  61.4048331   4.8643760
  36.5965960  60.1359975  20.7403375  35.9037756  59.6656955  20.9864107
  37.2126287  59.9098280  21.3145082  36.5850490  60.0327107  20.8612528
  43.6350731  73.8364019  18.8558979  42.8365977  73.5963519  19.1132848
  44.0836743  73.8878412  19.6026027  43.5825342  73.8086410  19.0043903
  52.0395610  66.6026504  12.7769010  52.7012044  66.0417173  12.6764919
  51.3987022  66.1078535  13.1021701  52.0424478  66.4462913  12.8101351
  32.2560767  67.3840377  15.3748112  32.0736340  67.3587263  14.5220404
  32.9910436  67.8539314  15.4137020  32.3374831  67.4501739  15.2546030
  48.3260441  67.6191887  12.5180999  48.5616030  67.7637085  11.6907850
  48.4750005  68.3834295  12.9112513  48.3826244  67.7530941  12.4544603
  35.3206519  64.1025379  21.8830220  36.0446491  64.0878410  22.3695115
  35.4222655  64.8120735  21.3852188  35.4424728  64.2050083  21.8809007
  50.1550898  66.4593553  10.3550603  50.4859115  66.9921193   9.7490698
  50.7283986  66.5132440  11.0112554  50.2884577  66.5463121  10.3628385
  42.6951468  67.5824464  26.7479167  41.9024449  67.8967976  26.9331787
  42.8100395  67.7975933  25.9099952  42.5946878  67.6608301  26.6517502
  45.3682787  64.3058455  11.0374183  45.4629641  65.0447749  11.4913809
  44.7441630  63.8775931  11.4708748  45.2891817  64.3519776  11.1682331
  43.6235261  67.4844668  21.6864464  44.1974122  66.8471912  21.8413028
  43.5450064  67.4848750  20.8174122  43.6968496  67.3909779  21.5810875
  32.2231677  64.2633877  15.5247178  32.8005180  64.1270328  16.1639423
  31.5245739  63.8069661  15.7792763  32.2052699  64.1756143  15.6569468
  38.9798979  65.9167933  13.7385661  38.7218224  65.0839668  13.7116961
  39.0347462  66.1425546  12.8978162  38.9498757  65.8265704  13.6105798
  44.0600030  58.0196384  13.8389754  43.3556356  57.5305569  13.9973673
  44.1085004  58.0318858  12.9678198  43.9630081  57.9486032  13.7329094
  37.9533692  63.4705695  14.2250556  37.3783283  63.6297864  14.8614517
  37.5769368  62.8341105  13.7619007  37.8136504  63.4003508  14.2505115
  41.6206980  61.9429045  19.0842935  41.2321413  61.5183262  18.4295126
  40.9561679  62.1911194  19.5919961  41.4653908  61.9167766  19.0630802
  51.2630249  61.7004049  11.8590765  51.0066814  60.8883991  11.6688647
  52.1059563  61.7081617  11.6320952  51.3496275  61.5816047  11.7975582
  27.6990510  63.1145770  12.2394997  27.7850762  62.7377639  13.0208527
  28.3266308  62.7406216  11.7614955  27.8047061  63.0031252  12.2840474
  45.4433342  55.6403673  16.5966919  45.8243853  54.9581845  16.9834793
  44.6396626  55.3513276  16.4142583  45.3809803  55.4970722  16.6270975
  42.7245918  66.1727649   7.2819742  43.5386557  66.4642542   7.1702513
  42.6605060  65.5187512   6.7078034  42.8348657  66.1192844   7.1808579
  48.9455409  68.8553645  21.6949317  48.7094046  68.0241710  21.5761378
  49.5898638  68.8039253  22.2804161  49.0050079  68.7251333  21.7635211
  38.5953827  69.6449167  12.4092054  39.2327774  69.4060914  12.9543847
  39.0208898  69.8486326  11.6745214  38.7529993  69.6400177  12.3809211
  33.2866469  71.8837503  16.2926357  33.3270614  72.1552354  15.4646137
  33.8460993  72.4079411  16.7084145  33.3749815  72.0013258  16.2318246
  39.2356642  64.8651457   6.7466943  39.6201794  64.6459163   7.4983488
  38.9868262  65.6914402   6.8768019  39.2558714  64.9549603   6.8768019
  39.4025182  58.1457872  26.4629527  39.0878623  58.9157434  26.1999090
  39.0815115  57.5828128  25.8781754  39.3084101  58.1768140  26.3370877
  49.9691829  68.6398094  17.7577612  49.6637646  69.3726151  18.1190927
  49.2498045  68.2336024  17.4770398  49.8179171  68.6879827  17.7690749
  40.9775299  70.1221589  14.0885840  41.0514307  69.9596761  14.9427690
  41.7944805  70.3111779  13.8446322  41.1091657  70.1258332  14.1783865
  55.6693621  65.2791095  17.0845956  55.6018122  65.2987054  16.2148542
  55.6549284  66.1221422  17.3101626  55.6572378  65.4064830  16.9898433
  34.7381055  70.4679452  11.1180283  33.9119173  70.7141189  10.9914562
  34.7993047  70.3891533  11.9842341  34.6255222  70.4924401  11.2269228
  36.9557079  56.5348393  12.0775724  36.0879505  56.6070993  12.1433333
  37.2432283  57.3370472  12.2663699  36.8696827  56.6642540  12.1150490
  46.0789968  56.6826253  20.4087045  46.8243560  56.4936063  19.9950471
  45.6627272  57.2084491  19.8500902  46.1274942  56.7328398  20.2651619
  53.4552239  64.0535481  15.3592550  54.0060160  63.4203550  15.5989642
  53.4396354  64.5850874  16.0508055  53.5337435  64.0384429  15.4971409
  40.1074630  67.8874078  19.9052444  39.6086323  68.5989846  19.9837332
  40.9174854  68.2074745  19.8670606  40.1530736  68.0400927  19.9109012
  37.4585800  75.0623715  11.8859463  37.2386095  74.7721070  12.6786130
  37.2380322  74.4038670  11.3577375  37.3933394  74.9223423  11.9248372
  36.3702747  67.1497031  14.1515165  36.0815996  66.5234503  14.6860892
  37.2386095  67.0917319  14.2179845  36.4562999  67.0484576  14.2406119
  47.1580645  62.2931815  14.4697146  46.8145411  61.5722150  14.8204396
  47.2573687  62.0845666  13.6275505  47.1222688  62.1556018  14.3968827
  36.5735020  68.7892282  10.0757530  37.3280988  69.1705321  10.2892992
  35.9805633  69.2403426  10.5304226  36.5971734  68.9121110  10.1740408
  39.0341688  60.7455123  25.2014742  38.2241463  61.0512902  25.0904584
  39.5116374  61.4660705  25.3167326  38.9845166  60.8969724  25.2021813
  37.8933247  69.9600844  15.4497645  37.3714001  70.1001135  16.1349510
  38.2807267  69.2011508  15.6399762  37.8736948  69.8686368  15.5798722
  34.8824431  60.0106652   9.5192600  34.5949227  59.6407923   8.7824547
  35.5694899  60.4801508   9.2576305  34.9413328  60.0253622   9.3707675
  39.3199573  66.9904863  10.8479136  39.1242355  67.5979597  10.2539439
  39.5433918  66.2972807  10.3670810  39.3234214  66.9782388  10.6895217
  37.7178103  63.8759601  10.9660004  38.4400755  64.0400759  10.5063810
  37.2386095  64.5969266  10.8599344  37.7541833  64.0057830  10.8825618
  45.6771610  60.2123399  16.3456689  44.8382711  60.2384678  16.1094953
  45.7475978  60.8594135  16.9262036  45.5640004  60.3119525  16.3965806
  35.3685719  66.2817673  20.0714144  35.8806816  66.5601926  19.4222904
  35.0822062  67.0206967  20.4376957  35.4020583  66.4320027  20.0304022
  44.1240889  57.1108777  11.0784305  44.8267241  56.9116525  10.6004264
  43.8585077  56.3384719  11.3853149  44.1887521  56.9671743  11.0529747
  49.5529134  65.4191386  13.6317931  49.4663109  65.5746812  14.4852710
  49.0979614  66.0629462  13.2577336  49.4732391  65.5367141  13.7025038
  32.4552626  60.7887865  10.3677881  32.5568762  61.5914026  10.6958856
  33.2508512  60.5875201  10.0700961  32.5880531  60.8773764  10.3713236
  38.8869445  58.3744062  20.1315186  38.6952642  58.3899196  20.9814609
  39.7368041  58.5707736  20.1081841  38.9845167  58.4058413  20.2538481
  33.2716358  60.9035043  18.1099002  33.1301850  60.0518984  18.2343510
  33.5556921  60.9463704  17.2861208  33.2924204  60.7834793  18.0066626
  43.4254950  62.7402133  12.2543491  43.1789664  62.6597884  13.0880280
  43.7540073  61.9555601  12.0606018  43.4376194  62.6128399  12.3491014
  45.6581084  65.7481868  22.2952654  45.6529123  64.8761685  22.2995080
  46.3642078  65.9470037  21.8222109  45.7626088  65.6485742  22.2259689
  39.3851977  65.4758852  21.6666474  39.5295353  66.0560060  21.0309584
  39.7327626  65.8535149  22.3716328  39.4579439  65.6179556  21.6765469
  41.5571895  64.6749020  19.4491605  40.8095209  64.8680035  19.0439883
  41.7113420  63.8494240  19.2115727  41.4694322  64.5814132  19.3537011
  38.4579732  73.6661624  18.5327501  38.6069296  73.1064540  17.8800905
  39.2379735  73.7453625  18.9160019  38.5953826  73.5947189  18.4924450
  40.9833033  73.8376267  19.8111991  40.9076704  73.1685077  20.3662780
  40.9122892  74.5394055  20.3252658  40.9613640  73.8421174  19.9688840
  41.7973672  58.5699571  20.3387009  42.2546286  59.3023545  20.4659801
  41.8730001  58.1466036  21.0974265  41.8764642  58.6156809  20.4688086
  34.0406663  58.8165391  21.4276453  33.5048853  58.2045749  21.7437220
  34.1024428  59.3913527  22.0810119  33.9702296  58.8112319  21.5711880
  46.2700998  51.7489446  14.2080852  46.3884566  52.2065910  13.4748155
  46.0963174  50.9434707  13.9217070  46.2620169  51.6983218  14.0581786
  41.6403280  72.3577266  10.6435597  42.4053171  72.0886909  10.3218262
  41.5381370  71.8727276  11.3605660  41.7384775  72.2466830  10.7015425
  39.6756050  60.5601675  17.1828833  38.8852125  60.3793135  17.5046169
  40.0716673  59.7828628  17.1659128  39.6172926  60.4189136  17.2281381
  45.0599736  68.1944105  14.9088279  44.3844738  67.9629337  15.4101666
  45.0692112  67.5865288  14.2830384  44.9618241  68.0703030  14.8904431
  42.1893880  63.0361934  21.6652332  42.1253021  63.8971891  21.5372469
  42.3291068  62.7193927  20.8647883  42.2009350  63.1162101  21.5280545
  40.8712974  65.7294073  15.8068535  40.4475223  65.9298572  15.0707553
  40.6957829  64.8822921  15.9192835  40.7823855  65.6342855  15.7142225
  40.3724667  77.2444586  18.2689992  40.8620598  76.5455376  18.0865657
  39.8008900  76.9468456  18.8566050  40.3609197  77.0970810  18.3291033
  36.1595419  66.2246125  11.2396507  36.3160038  66.1592928  12.0952499
  36.4996012  66.9994677  11.0275187  36.2328654  66.3295323  11.3351102
  46.5691671  69.8106656  27.2216783  47.3826536  69.5391805  27.3821915
  46.4086637  69.5114196  26.4176979  46.6661619  69.7261582  27.1262189
  43.8463833  60.4940313  20.1612171  44.0605802  59.8551227  19.6075525
  43.2297732  60.9386137  19.7320033  43.7869162  60.4650457  20.0162602
  32.7329680  63.4081075  11.5557275  33.1128645  63.8265620  10.8917542
  32.1585045  63.9894531  11.8626118  32.7041005  63.5558934  11.5034016
  46.0102921  62.1029378  21.0995478  45.1979603  61.7955269  21.1808651
  46.4692856  61.6228378  21.6638190  45.9583306  61.9865871  21.1950072
  45.4208176  69.9809050  11.5472423  45.0622830  70.1523693  12.3236455
  44.9346886  70.4422256  10.9900421  45.2966873  70.0748021  11.5797692
  43.2378562  53.6040249  15.1499514  42.3672120  53.5778970  15.1032823
  43.4918903  53.4317441  14.3325360  43.1472122  53.5750392  15.0219651
  43.1056428  63.5089450  25.8824181  43.5756060  64.1331566  26.2692055
  43.1518309  62.8406425  26.4417395  43.1824304  63.5024130  26.0224252
  40.2627702  55.6146477  16.6072984  39.7466191  54.9226669  16.7324563
  39.7021631  56.2817254  16.5535583  40.1034215  55.6109735  16.6179050
  42.3319936  56.1539437  18.4365837  41.9451689  56.1788469  19.2179367
  41.8452873  55.5881116  17.9840353  42.2032444  56.0735188  18.4853741
  46.5812915  70.8712946  22.4939623  47.2192635  70.3773142  22.1602079
  45.9387007  70.7990347  21.9091850  46.5807141  70.7871955  22.3581978
  48.3069915  62.7202092  17.0605539  47.8797523  62.6328441  16.3053639
  47.6695968  62.8279868  17.6460383  48.1499522  62.7234752  17.0350981
  41.9977077  53.0406423  20.7276097  42.6270195  53.5766723  20.4497167
  42.1662940  52.9483782  21.5789662  42.1154872  53.1067785  20.8124625
  41.7990992  57.8277617  23.0002508  42.6264421  57.5562766  23.0561123
  41.8198838  58.6238459  23.3566326  41.9243842  57.9057372  23.0617691
  46.6367172  71.5632754  19.1344980  47.4259550  71.2121819  19.2547062
  46.8110769  72.3769143  18.8721614  46.7787453  71.6318611  19.1132848
  36.3760482  64.9741480  16.1872769  35.5348489  64.8745354  16.3951663
  36.5850490  65.7436960  16.5387090  36.2825175  65.0733523  16.2700084
  33.8536049  62.5961017  14.0157520  33.4592747  62.6704029  13.2407629
  33.2976166  62.9818963  14.5665881  33.7138861  62.6642792  13.9825179
  45.4900996  55.5742311  13.6961399  45.6950589  55.5064619  14.5418396
  45.1627420  56.3801132  13.6282576  45.4716244  55.6828251  13.8121054
  40.1877147  62.9022879  15.4370367  39.8840284  62.3478868  16.0380774
  39.4856568  63.0815089  14.9498401  40.0393357  62.8467662  15.4540072
  39.2443244  60.2123399  10.0015068  39.5202978  59.4942312   9.5892636
  39.8441913  60.8108319   9.7936174  39.3736509  60.1943770   9.9095830
  38.2495498  70.1172600  20.1442464  38.1415853  70.1274662  21.0104522
  38.4591279  70.9427380  19.9547418  38.2645609  70.2413675  20.2446556
  48.7434683  56.1274075  13.1764164  48.1308997  56.6144477  13.5617896
  48.8398858  55.4517566  13.7201815  48.6672581  56.0992384  13.3143022
  42.7453764  57.8836916   8.2761663  43.1997511  58.0547477   9.0009508
  43.2193810  57.2705027   7.8759439  42.8822085  57.8187802   8.3235425
  36.2669290  67.3685242  17.6064402  35.6757223  68.0094741  17.5767417
  37.0290313  67.7922860  17.5795701  36.2917550  67.5261081  17.5979549
  36.6629913  58.5287240  18.2732420  37.1231394  58.6026170  19.0107543
  36.7086019  59.3268494  17.9232241  36.7380468  58.6581387  18.3305176
  38.3113262  59.1953935  22.8404447  37.9198827  58.5487282  23.2760224
  38.4799125  59.7865370  23.4598702  38.2784173  59.1868203  22.9967153
  52.3859711  67.1991012  18.6041680  52.4442835  67.6477661  19.3501657
  51.7526179  67.6089825  18.1671760  52.3011006  67.3264747  18.6494228
  46.0258806  72.8194554  15.0396426  45.8278495  73.3085368  14.3452638
  45.4046517  73.0235795  15.6180560  45.9046371  72.9211092  15.0219650
  40.0866784  64.5879451   9.3806671  40.8308829  64.9753727   9.6189621
  40.2327481  63.7436876   9.5447158  40.2177370  64.5209924   9.4400640
  42.0046360  56.3829710  14.4138532  41.1582405  56.5552517  14.2879882
  42.0017492  55.5779053  14.7504360  41.8793510  56.2890739  14.4449659
  43.0744660  60.1604924  15.2800590  42.6004615  59.6346686  15.7905901
  43.4462796  59.6134397  14.7115452  43.0594549  60.0020921  15.2715737
  33.4517690  62.1576431  20.6484136  34.3143303  62.0572140  20.5621466
  33.1209473  61.5771140  20.0869708  33.5302887  62.0568058  20.5529542
  49.3381391  65.2207300  16.6907371  49.0979614  64.3813715  16.6949797
  49.8173398  65.3007466  17.4148144  49.3733575  65.1088699  16.7982173
  45.0028160  61.0541479   8.3426344  44.4751179  61.1370223   7.6532053
  45.4623868  61.7959350   8.3390988  44.9930010  61.1762141   8.2401039
  51.3386578  62.0008757  14.6436630  51.0996348  61.9604591  13.8057414
  51.5020479  62.8479909  14.7702351  51.3276881  62.1200842  14.5390112
  47.9432608  66.3858706  20.5741675  48.6666807  65.9331233  20.3952695
  47.6782570  66.6663372  19.7914003  48.0113881  66.3609675  20.4320390
  36.8119476  60.9818880  17.3094554  36.1872547  60.9937272  16.7020507
  36.4765071  61.4579055  17.9585794  36.6704968  61.0537397  17.3151122
  36.9961225  59.3243998   3.3667239  36.6474029  59.9763724   3.8298788
  36.5157671  59.3101111   2.6391110  36.8731469  59.4187052   3.3278330
  33.5245152  69.0419340  18.7498318  32.9945076  68.3511779  18.7993293
  33.7970245  69.0329525  17.9211027  33.4869874  68.9386472  18.6345734
  43.7251397  66.4842585  18.7236690  43.1108391  65.9400635  19.0185325
  44.2418682  65.9706821  18.2442506  43.7107060  66.3278994  18.6960918
  42.9647695  67.5546855  16.4580988  42.5375303  66.9296573  16.0246424
  42.9572639  67.2721776  17.2839996  42.9006836  67.4199635  16.5160816
  36.0810222  62.5912028  19.5269422  36.2403708  61.8355352  19.9321144
  35.9003115  63.1402967  20.1810160  36.0775581  62.5605841  19.6832128
  44.0230525  54.7573263  20.0820212  43.5271086  54.9536937  19.3911779
  44.7799587  55.1565931  19.9109014  44.0617349  54.8450997  19.9540349
  41.2933404  58.4315609  16.6723522  41.3175892  57.8975721  15.9836302
  41.5444878  57.9232918  17.3349113  41.3343323  58.2776513  16.6688167
  28.8040994  65.7147104  16.1066667  28.6984443  65.6693948  15.2418751
  28.0541214  66.0600885  16.3880951  28.6776597  65.7588012  16.0203996
  37.5734727  57.1586427  16.0529267  37.6133098  57.6595634  16.7663974
  36.7484391  57.2496821  15.7835190  37.4574253  57.2468244  16.1179805
  39.7564339  66.7247167  24.1549561  38.9059970  66.8618882  24.2907206
  39.9192467  65.9910946  24.5997263  39.6548203  66.6361269  24.2405161
  38.9949090  63.6746937  18.3503166  38.1641020  63.8420755  18.1438414
  38.9400607  63.2982888  19.1352051  38.8638505  63.6436668  18.4351694
  36.8032873  57.1655830  23.9859576  37.4285577  56.6217963  24.2589009
  36.3483353  56.6850748  23.4167367  36.8281134  57.0145311  23.9421170
  37.3685134  61.9502529   8.8793283  37.5088095  62.4474993   9.5821925
  37.8667667  61.2488823   9.0207497  37.4626215  61.9204507   9.0044862
  37.3985356  62.8169640   6.2085860  38.0330436  63.4130065   6.1435322
  37.4810967  62.5173097   7.0231730  37.5041907  62.8610548   6.3188947
  50.3767922  65.3485117  19.0772224  50.9685762  65.9882368  19.1090423
  50.8126916  64.6508154  19.3664291  50.5286353  65.3403467  19.1253057
  38.9764339  58.7483615   6.1831302  39.2980180  58.2686698   5.5290565
  39.2391283  59.5583261   5.9922114  39.0630364  58.7973513   6.0586794
  42.2061312  69.7702489  19.7030118  41.6986403  70.3238336  20.1470749
  41.9087958  69.8310779  18.8848893  42.0866197  69.8608801  19.6478575
  44.3723494  58.1355809  18.5454781  44.7978566  57.6828336  17.9338308
  43.7580487  57.5815880  18.8219569  44.3452139  57.9869785  18.4959807
  33.9038344  65.0137480   9.4775406  34.4130573  65.6101988   9.8586712
  34.3772616  64.7463454   8.7951826  34.0481720  65.0623296   9.4329929
  42.8117717  54.6070909  11.9545358  42.1686035  54.4568555  12.5230497
  42.4717124  54.3613254  11.1894463  42.6662794  54.5483031  11.9248374
  47.4017063  62.5630336  11.3775367  46.7308253  63.1060038  11.2488433
  48.0956814  63.0325191  11.1357062  47.4045931  62.7128607  11.3230895
  41.4503797  74.7027048  16.6087125  41.2269452  73.9445877  16.9771152
  40.9613640  74.7325069  15.8867565  41.3447246  74.5949272  16.5563866
  47.5645191  59.0186219  14.2865740  47.9172801  58.5915942  14.9611539
  46.7059992  58.9337063  14.4166817  47.4894635  58.9430960  14.4060751
  36.2628876  61.6493739  12.3448587  35.5440865  62.0657872  12.6121450
  36.6341238  62.2147978  11.7940225  36.2120808  61.7943020  12.3031394
  45.5628457  62.2821588  18.2350582  45.5426384  62.1004883  19.0885361
  45.6107657  63.1533606  18.2110166  45.5663098  62.3838126  18.3573877
  43.5074786  68.8708780  24.1599059  43.4670641  68.2258457  23.5744215
  44.3198105  68.8145397  24.4724471  43.6217940  68.7667747  24.1196008
  40.0982254  74.9227506  14.0624210  39.6842653  74.2601636  13.6728052
  40.7829628  75.0705365  13.5419904  40.1380626  74.8468164  13.9280707
  43.4647548  74.0817591  14.8147826  43.0663831  74.1919861  14.0468647
  42.8498768  74.2899657  15.3974386  43.3146437  74.1291159  14.7879126
  42.0375450  60.6891739   7.6821966  41.4440289  61.0108735   7.1306533
  42.0750728  59.8432834   7.4743072  41.9549839  60.6116067   7.5704737
  48.9969251  54.1404631  15.2150053  48.4900116  53.4333771  15.1471230
  49.7936685  53.8097820  15.3451129  49.0396490  53.9877783  15.2249048
  44.9133267  60.6471243  11.1123716  44.6846960  60.6703945  10.2702075
  45.1731343  59.8228710  11.2318727  44.9179455  60.5287323  11.0048914
  39.1952495  62.5005716  20.7148817  38.6831398  61.8926899  21.0733848
  39.0231991  63.2162309  21.1822792  39.0942132  62.5169016  20.8365040
  34.0418210  60.9443292  23.3651178  33.8720800  61.6044667  22.8199385
  33.5984160  61.1549853  24.0863668  33.9517543  61.0729274  23.3912808
  37.9678029  59.1847790  12.4077912  38.4435396  59.5464870  11.7728093
  37.4666629  59.8404257  12.6878055  37.9643388  59.3341979  12.3554653
  43.0721566  60.4229961  23.1551072  43.6292996  60.1943771  22.5229538
  42.7482631  61.1835627  22.8786285  43.1067976  60.5013798  23.0207569
  30.9420274  63.8490157  18.6239668  30.3946994  63.1790803  18.7420537
  31.7312653  63.4820005  18.6883136  30.9772458  63.6955144  18.6508369
  40.7904683  63.5097614  24.1203079  41.5416010  63.8249291  24.4342633
  40.9827259  63.3076785  23.2937001  40.9296097  63.5264996  24.0446475
  40.0104682  61.3288990   5.7751296  40.3903647  61.3468619   4.9902411
  39.2697278  61.7742978   5.6542143  39.9573520  61.3970764   5.6414864
  47.6389973  59.6371181  11.3626875  47.6384199  59.4819837  12.2211151
  47.4346153  60.4834168  11.3068260  47.6089751  59.7391801  11.4814814
  29.7007244  63.0610965  15.7785691  29.5229005  62.6087574  16.5040607
  29.4126266  63.8637127  15.9624169  29.6320197  63.1133523  15.9129194
  45.3630825  64.3168683  15.0163082  45.8584490  63.5991678  14.9767102
  44.5530601  64.0139480  14.9017569  45.3174718  64.1666329  14.9936807
  40.8089436  68.1666496   7.1660086  40.0000759  67.8433169   7.1193396
  41.3164345  67.4599718   7.0988335  40.7639103  68.0147812   7.1490380
  31.4379714  65.5938689  12.8907450  30.5725233  65.5824379  12.7790222
  31.5378530  65.4068912  13.7378590  31.3253881  65.5644750  12.9996395
  47.4282644  67.0672370  17.7040210  47.8537715  66.5446792  17.1510635
  47.0639564  67.6653207  17.1828833  47.4369246  67.0782597  17.5449220
  37.0636724  75.3636588  16.4637556  37.3783283  76.1772976  16.4715338
  37.4730137  74.9786806  17.1319715  37.1704822  75.4265290  16.5641648
  44.0161243  70.7806634  14.0341368  44.4872421  71.4946897  14.2031353
  44.3521422  70.1805384  14.5701237  44.1356358  70.7978099  14.1373744
  46.1038228  72.3907948  26.2133440  46.2135193  71.6016508  26.5690187
  46.4329124  72.3013884  25.4107778  46.1690634  72.2613801  26.1475831
  40.9330738  55.5534105  20.9899463  41.0658644  54.7565098  21.3180438
  41.3175891  56.0800508  21.5697738  41.0087067  55.5134022  21.1242966
  44.6535190  70.5724568  20.7969060  44.1056136  69.9482452  20.5289126
  45.1148218  70.7618840  20.0813140  44.6402399  70.5083619  20.6519492
  44.0063093  52.4764431  17.5880556  43.2009057  52.3662161  17.9048394
  43.8769829  52.5776887  16.7310422  43.8683226  52.4748101  17.5088596
  47.4629054  58.6409923  18.1820253  46.8792043  59.1419129  17.7697820
  47.7833348  58.1339479  17.5484576  47.4242229  58.6401758  18.0278760
  40.0023853  57.5550518   8.4578928  40.8239547  57.7248831   8.2160622
  39.5393504  57.7097779   7.7345225  40.0555015  57.6032251   8.3150572
  38.5919185  55.5493280  19.2377356  39.1363598  55.2084407  19.8281698
  38.6456121  56.4078742  19.3798641  38.6808304  55.6248539  19.3459230
  34.4049744  69.3109696  16.1116164  35.0094601  69.2705530  15.4829985
  34.1977056  70.1580848  16.1420220  34.4638641  69.4297698  16.0232281
  44.2193516  71.5775641  17.3278402  45.0391890  71.4338607  17.5894697
  43.9387594  72.2021840  17.8694840  44.2990259  71.6485993  17.4466341
  29.6401026  68.2944314  15.9815087  29.5425304  67.4840585  16.2905144
  30.4229896  68.2736107  15.5961356  29.7417163  68.1711404  15.9701950
  57.2000568  84.5902669  24.6534665  57.9067335  84.0954700  24.7821599
  57.3888503  85.0311751  23.9237323  57.3328473  84.5821020  24.5643710
  45.3487879  76.0603271  15.6010854  44.7292910  75.4695918  15.4320869
  45.2471742  76.6514706  14.9675177  45.2425554  76.0607354  15.4815843
  45.0757012  79.6055553  17.8454423  44.9515709  80.1917998  18.4804242
  45.7275296  79.1115748  18.1466698  45.1530661  79.6194357  17.9840352
  48.5138220  79.5234974  23.2583447  48.6858724  79.4140869  24.1068729
  49.0507577  80.1689380  23.0214640  48.6183224  79.6026976  23.3488544
  54.4512921  87.4439225  25.2092523  55.2353338  87.5570073  25.5748266
  54.2509516  86.6180362  25.4051209  54.5378947  87.3385944  25.2926909
  42.8199937  82.1166905  18.0936367  42.5538352  81.3006022  18.2527358
  42.8338501  82.1620061  17.2231883  42.7824659  82.0023810  17.9889849
  47.5698543  75.6545283  20.7403375  46.8770340  75.1842263  20.9864107
  48.1858870  75.4283588  21.3145082  47.5583073  75.5512415  20.8612528
  46.2939102  79.6210687  21.8830220  47.0179074  79.6063718  22.3695115
  46.3955239  80.3306043  21.3852188  46.4157311  79.7235391  21.8809007
  53.6684052  83.1009772  26.7479167  52.8757032  83.4153284  26.9331787
  53.7832979  83.3161240  25.9099952  53.5679462  83.1793609  26.6517502
  54.5967844  83.0029976  21.6864464  55.1706706  82.3657220  21.8413028
  54.5182648  83.0034058  20.8174122  54.6701079  82.9095087  21.5810875
  43.1964261  79.7819185  15.5247178  43.7737763  79.6455636  16.1639423
  42.4978322  79.3254969  15.7792763  43.1785282  79.6941451  15.6569468
  52.5939564  77.4614353  19.0842935  52.2053996  77.0368570  18.4295126
  51.9294262  77.7096502  19.5919961  52.4386492  77.4353074  19.0630802
  38.6723094  78.6331078  12.2394997  38.7583346  78.2562946  13.0208527
  39.2998891  78.2591524  11.7614955  38.7779645  78.5216560  12.2840474
  56.4165925  71.1588981  16.5966919  56.7976437  70.4767152  16.9834793
  55.6129210  70.8698583  16.4142583  56.3542387  71.0156030  16.6270975
  50.3757766  73.6643180  26.4629527  50.0611207  74.4342742  26.1999090
  50.0547698  73.1013436  25.8781754  50.2816685  73.6953448  26.3370877
  47.9289663  72.0533701  12.0775724  47.0612088  72.1256301  12.1433333
  48.2164867  72.8555780  12.2663699  47.8429411  72.1827848  12.1150490
  57.0522551  72.2011561  20.4087045  57.7976143  72.0121371  19.9950471
  56.6359856  72.7269798  19.8500902  57.1007526  72.2513706  20.2651619
  50.0074271  76.2640431  25.2014742  49.1974047  76.5698210  25.0904584
  50.4848958  76.9846013  25.3167326  49.9577750  76.4155032  25.2021813
  46.3418303  81.8002981  20.0714144  46.8539400  82.0787234  19.4222904
  46.0554646  82.5392275  20.4376957  46.3753166  81.9505335  20.0304022
  49.8602028  73.8929370  20.1315186  49.6685225  73.9084504  20.9814609
  50.7100624  74.0893044  20.1081841  49.9577750  73.9243721  20.2538481
  44.2448941  76.4220351  18.1099002  44.1034433  75.5704292  18.2343510
  44.5289505  76.4649012  17.2861208  44.2656787  76.3020101  18.0066626
  56.6313668  81.2667176  22.2952654  56.6261706  80.3946993  22.2995080
  57.3374662  81.4655345  21.8222109  56.7358672  81.1671050  22.2259689
  50.3584561  80.9944160  21.6666474  50.5027937  81.5745368  21.0309584
  50.7060210  81.3720457  22.3716328  50.4312022  81.1364864  21.6765469
  52.5304478  80.1934328  19.4491605  51.7827792  80.3865343  19.0439883
  52.6846004  79.3679548  19.2115727  52.4426906  80.0999440  19.3537011
  52.7706255  74.0884879  20.3387009  53.2278870  74.8208853  20.4659801
  52.8462584  73.6651344  21.0974265  52.8497225  74.1342117  20.4688086
  45.0139247  74.3350699  21.4276453  44.4781436  73.7231057  21.7437220
  45.0757011  74.9098835  22.0810119  44.9434879  74.3297626  21.5711880
  57.2433581  67.2674754  14.2080852  57.3617149  67.7251217  13.4748155
  57.0695757  66.4620015  13.9217070  57.2352752  67.2168526  14.0581786
  50.6488633  76.0786983  17.1828833  49.8584708  75.8978443  17.5046169
  51.0449256  75.3013935  17.1659128  50.5905510  75.9374444  17.2281381
  53.1626464  78.5547242  21.6652332  53.0985605  79.4157198  21.5372469
  53.3023651  78.2379235  20.8647883  53.1741934  78.6347409  21.5280545
  57.5424255  85.3291964  27.2216783  58.3559120  85.0577113  27.3821915
  57.3819221  85.0299504  26.4176979  57.6394203  85.2446890  27.1262189
  54.8196417  76.0125621  20.1612171  55.0338386  75.3736535  19.6075525
  54.2030316  76.4571445  19.7320033  54.7601746  75.9835765  20.0162602
  56.9835505  77.6214686  21.0995478  56.1712186  77.3140576  21.1808651
  57.4425439  77.1413686  21.6638190  56.9315889  77.5051178  21.1950072
  54.2111145  69.1225557  15.1499514  53.3404703  69.0964278  15.1032823
  54.4651486  68.9502749  14.3325360  54.1204705  69.0935700  15.0219651
  54.0789012  79.0274758  25.8824181  54.5488643  79.6516874  26.2692055
  54.1250892  78.3591733  26.4417395  54.1556888  79.0209438  26.0224252
  51.2360286  71.1331785  16.6072984  50.7198774  70.4411976  16.7324563
  50.6754215  71.8002562  16.5535583  51.0766799  71.1295043  16.6179050
  53.3052519  71.6724745  18.4365837  52.9184272  71.6973777  19.2179367
  52.8185456  71.1066424  17.9840353  53.1765028  71.5920496  18.4853741
  52.9709661  68.5591731  20.7276097  53.6002779  69.0952031  20.4497167
  53.1395524  68.4669089  21.5789662  53.0887455  68.6253093  20.8124625
  52.7723576  73.3462925  23.0002508  53.5997005  73.0748074  23.0561123
  52.7931422  74.1423767  23.3566326  52.8976426  73.4242679  23.0617691
  47.6362496  74.0472548  18.2732420  48.0963978  74.1211478  19.0107543
  47.6818603  74.8453802  17.9232241  47.7113052  74.1766695  18.3305176
  49.2845846  74.7139243  22.8404447  48.8931411  74.0672590  23.2760224
  49.4531709  75.3050678  23.4598702  49.2516756  74.7053511  22.9967153
  52.9778943  71.9015018  14.4138532  52.1314989  72.0737825  14.2879882
  52.9750076  71.0964361  14.7504360  52.8526093  71.8076047  14.4449659
  44.4250274  77.6761739  20.6484136  45.2875887  77.5757448  20.5621466
  44.0942057  77.0956448  20.0869708  44.5035470  77.5753365  20.5529542
  47.7852060  76.5004188  17.3094554  47.1605130  76.5122580  16.7020507
  47.4497655  76.9764363  17.9585794  47.6437552  76.5722705  17.3151122
  44.4977736  84.5604648  18.7498318  43.9677660  83.8697087  18.7993293
  44.7702829  84.5514833  17.9211027  44.4602458  84.4571780  18.6345734
  47.0542805  78.1097336  19.5269422  47.2136292  77.3540660  19.9321144
  46.8735699  78.6588275  20.1810160  47.0508164  78.0791149  19.6832128
  54.9963108  70.2758571  20.0820212  54.5003670  70.4722245  19.3911779
  55.7532170  70.6751239  19.9109014  55.0349933  70.3636305  19.9540349
  52.2665988  73.9500917  16.6723522  52.2908475  73.4161029  15.9836302
  52.5177462  73.4418226  17.3349113  52.3075907  73.7961821  16.6688167
  39.7773578  81.2332412  16.1066667  39.6717027  81.1879256  15.2418751
  39.0273798  81.5786193  16.3880951  39.6509181  81.2773320  16.0203996
  48.5467310  72.6771735  16.0529267  48.5865682  73.1780942  16.7663974
  47.7216975  72.7682129  15.7835190  48.4306836  72.7653552  16.1179805
  50.7296923  82.2432475  24.1549561  49.8792554  82.3804190  24.2907206
  50.8925051  81.5096253  24.5997263  50.6280787  82.1546576  24.2405161
  49.9681674  79.1932245  18.3503166  49.1373603  79.3606063  18.1438414
  49.9133191  78.8168196  19.1352051  49.8371088  79.1621976  18.4351694
  47.7765457  72.6841138  23.9859576  48.4018160  72.1403271  24.2589009
  47.3215937  72.2036056  23.4167367  47.8013717  72.5330619  23.9421170
  55.3456078  73.6541117  18.5454781  55.7711149  73.2013643  17.9338308
  54.7313071  73.1001188  18.8219569  55.3184723  73.5055093  18.4959807
  54.4807370  84.3894088  24.1599059  54.4403225  83.7443765  23.5744215
  55.2930688  84.3330705  24.4724471  54.5950524  84.2853055  24.1196008
  59.9701834  69.6589939  15.2150053  59.4632699  68.9519079  15.1471230
  60.7669268  69.3283128  15.3451129  60.0129074  69.5063091  15.2249048
  50.1685079  78.0191024  20.7148817  49.6563982  77.4112207  21.0733848
  49.9964575  78.7347617  21.1822792  50.0674716  78.0354324  20.8365040
  45.0150793  76.4628600  23.3651178  44.8453384  77.1229975  22.8199385
  44.5716743  76.6735161  24.0863668  44.9250127  76.5914582  23.3912808
  54.0454149  75.9415269  23.1551072  54.6025579  75.7129079  22.5229538
  53.7215214  76.7020935  22.8786285  54.0800559  76.0199106  23.0207569
  41.9152858  79.3675465  18.6239668  41.3679577  78.6976111  18.7420537
  42.7045236  79.0005313  18.6883136  41.9505042  79.2140452  18.6508369
  51.7637266  79.0282922  24.1203079  52.5148593  79.3434599  24.4342633
  51.9559843  78.8262093  23.2937001  51.9028681  79.0450304  24.0446475
  40.6739827  78.5796273  15.7785691  40.4961589  78.1272882  16.5040607
  40.3858850  79.3822434  15.9624169  40.6052781  78.6318831  15.9129194
  57.0770811  87.9093256  26.2133440  57.1867777  87.1201816  26.5690187
  57.4061708  87.8199192  25.4107778  57.1423217  87.7799109  26.1475831
  51.9063322  71.0719413  20.9899463  52.0391227  70.2750406  21.3180438
  52.2908475  71.5985816  21.5697738  51.9819651  71.0319330  21.1242966
  54.9795677  67.9949739  17.5880556  54.1741641  67.8847469  17.9048394
  54.8502412  68.0962195  16.7310422  54.8415810  67.9933409  17.5088596
  58.4361638  74.1595231  18.1820253  57.8524626  74.6604437  17.7697820
  58.7565932  73.6524787  17.5484576  58.3974813  74.1587066  18.0278760
  49.5651769  71.0678588  19.2377356  50.1096182  70.7269715  19.8281698
  49.6188704  71.9264049  19.3798641  49.6540888  71.1433847  19.3459230
  23.8523885  18.2915463  13.1473487  23.9620850  17.5024024  13.5030234
  24.1814781  18.2021399  12.3447825  23.9176290  18.1621316  13.0815877
  34.9486224  30.4910185  11.5874711  35.6552992  29.9962216  11.7161646
  35.1374160  30.9319266  10.8577369  35.0814130  30.4828535  11.4983757
  34.4844329  26.2815703   4.6245907  35.0300289  26.9600790   4.6839877
  34.4261205  26.1403164   3.7647488  34.5560243  26.3607705   4.5057967
  27.4419143  38.6882358   1.4129115  28.0856599  39.1295522   1.8025274
  27.7675399  37.8835785   1.3259374  27.5850972  38.6347553   1.4574593
  30.3887101  31.5279691   3.7088873  30.6710344  30.7331097   3.4875629
  31.1173261  32.0060278   3.7293934  30.5376665  31.4814288   3.6791889
  40.3705189  30.6339053   0.6824704  39.5402892  30.8449697   0.8458121
  40.3214442  29.8076108   0.4066988  40.2411925  30.5428659   0.6662070
  28.4314927  33.4642907   3.5172614  27.9141868  33.1050322   2.9133922
  29.1289318  32.9405082   3.5278680  28.4580508  33.3340595   3.4302872
  32.0878519  33.9137721   9.4788787  32.1761865  33.7263862  10.3266997
  32.5168231  33.2675151   9.0793633  32.1640621  33.7900729   9.5460538
  29.6548979  33.1968881   8.4606449  29.0919813  32.7841491   8.9846110
  30.4170002  33.1221787   8.8799592  29.6843427  33.1246282   8.5999449
  39.8659148  23.2809454   4.4775125  39.0287569  23.3511641   4.7122720
  39.8347379  23.2833949   3.6049428  39.7377430  23.2919681   4.3834673
  26.2623877  25.4242489  10.1923494  26.4344380  25.3148384  11.0408776
  26.7993234  26.0696895   9.9554686  26.3668881  25.5034491  10.2828591
  25.1648448  31.7974130   4.8741993  25.7046673  31.6545261   5.5445365
  24.4818395  32.1970880   5.2426019  25.1440602  31.8353801   5.0276414
  37.6269504  31.3038408   0.8189420  37.1904736  31.3075150   1.5748391
  37.2932420  31.9843907   0.3868997  37.5132124  31.4050863   0.8670252
  32.1998578  33.3446740  12.1432570  32.9838995  33.4577588  12.5088312
  31.9995173  32.5187877  12.3391256  32.2864603  33.2393460  12.2266956
  32.3568971  35.2556842   5.7899026  31.5584217  35.0156342   6.0472894
  32.8054983  35.3071235   6.5366073  32.3043583  35.2279234   5.9383950
  40.7613851  28.0219327  -0.2890943  41.4230285  27.4609996  -0.3895034
  40.1205263  27.5271358   0.0361748  40.7642718  27.8655736  -0.2558603
  24.0424759  25.5218203   8.8170267  24.7664731  25.5071233   9.3035162
  24.1440895  26.2313558   8.3192235  24.1642968  25.6242906   8.8149054
  31.4169708  29.0017287  13.6819214  30.6242689  29.3160799  13.8671834
  31.5318635  29.2168756  12.8439999  31.3165119  29.0801124  13.5857549
  32.3453501  28.9037491   8.6204511  32.9192363  28.2664735   8.7753075
  32.2668305  28.9041574   7.7514168  32.4186736  28.8102602   8.5150922
  37.6673649  30.2746469   8.6289364  37.4312286  29.4434533   8.5101425
  38.3116878  30.2232076   9.2144208  37.7268320  30.1444157   8.6975258
  28.1243422  19.5650695  13.3969574  27.8096864  20.3350258  13.1339137
  27.8033355  19.0020951  12.8121801  28.0302342  19.5960964  13.2710924
  38.6910070  30.0590917   4.6917658  38.3855887  30.7918974   5.0530974
  37.9716285  29.6528847   4.4110445  38.5397412  30.1072650   4.7030796
  44.3911862  26.6983918   4.0186003  44.3236362  26.7179877   3.1488589
  44.3767524  27.5414245   4.2441673  44.3790618  26.8257653   3.9238480
  42.1770479  25.4728304   2.2932597  42.7278401  24.8396373   2.5329689
  42.1614594  26.0043697   2.9848101  42.2555675  25.4577252   2.4311455
  28.8292870  29.3066902   6.8392491  28.3304564  30.0182669   6.9177379
  29.6393094  29.6267568   6.8010653  28.8748977  29.4593750   6.8449059
  27.7559928  22.1647946  12.1354789  26.9459704  22.4705726  12.0244631
  28.2334615  22.8853528  12.2507373  27.7063407  22.3162547  12.1361860
  24.0903960  27.7010496   7.0054191  24.6025057  27.9794750   6.3562951
  23.8040302  28.4399790   7.3717004  24.1238823  27.8512850   6.9644069
  36.0421239  30.8678316   2.9770319  35.9035599  31.5659362   3.4819061
  35.2621237  30.7126972   2.6206500  35.9064466  30.9478483   2.9996593
  34.3799325  27.1674691   9.2292700  34.3747363  26.2954508   9.2335127
  35.0860318  27.3662860   8.7562156  34.4844329  27.0678565   9.1599736
  28.1070218  26.8951675   8.6006521  28.2513594  27.4752883   7.9649631
  28.4545866  27.2727972   9.3056375  28.1797679  27.0372379   8.6105515
  30.2790135  26.0941844   6.3831652  29.5313449  26.2872858   5.9779930
  30.4331660  25.2687063   6.1455773  30.1912563  26.0006955   6.2877058
  27.1797973  35.0854447   5.4667547  27.3287537  34.5257363   4.8140952
  27.9597975  35.1646449   5.8500066  27.3172066  35.0140013   5.4264497
  29.7051273  35.2569090   6.7452038  29.6294945  34.5877900   7.3002826
  29.6341133  35.9586878   7.2592704  29.6831880  35.2613997   6.9028886
  30.9112120  24.4554757   8.5992379  30.8471262  25.3164714   8.4712516
  31.0509308  24.1386751   7.7987930  30.9227590  24.5354924   8.4620592
  29.0942908  38.6637410   5.2030039  29.5838838  37.9648199   5.0205704
  28.5227140  38.3661280   5.7906096  29.0827438  38.5163633   5.2631080
  35.2909911  31.2299479  14.1556830  36.1044777  30.9584628  14.3161962
  35.1304878  30.9307019  13.3517026  35.3879860  31.1454405  14.0602236
  34.7321161  23.5222201   8.0335525  33.9197843  23.2148092   8.1148698
  35.1911096  23.0421202   8.5978237  34.6801546  23.4058694   8.1290119
  31.8274669  24.9282273  12.8164227  32.2974300  25.5524389  13.2032101
  31.8736549  24.2599248  13.3757442  31.9042545  24.9216953  12.9564299
  35.3031155  32.2905769   9.4279670  35.9410876  31.7965965   9.0942126
  34.6605247  32.2183170   8.8431897  35.3025382  32.2064778   9.2922025
  30.5209232  19.2470441   9.9342555  31.3482662  18.9755589   9.9901170
  30.5417079  20.0431282  10.2906373  30.6462083  19.3250195   9.9957738
  35.3585412  32.9825578   6.0685027  36.1477790  32.6314642   6.1887109
  35.5329010  33.7961966   5.8061661  35.5005694  33.0511435   6.0472895
  26.9713738  31.5365423   7.0782511  26.8634093  31.5467485   7.9444569
  27.1809520  32.3620204   6.8887465  26.9863849  31.6606498   7.1786603
  27.0331503  20.6146758   9.7744493  26.6417068  19.9680105  10.2100271
  27.2017365  21.2058194  10.3938749  27.0002413  20.6061026   9.9307199
  41.1077952  28.6183835   5.5381727  41.1661075  29.0670484   6.2841703
  40.4744419  29.0282648   5.1011807  41.0229247  28.7457570   5.5834275
  34.7477046  34.2387377   1.9736473  34.5496735  34.7278192   1.2792685
  34.1264757  34.4428619   2.5520607  34.6264611  34.3403915   1.9559696
  38.0599631  26.6400123   3.6247417  37.8197854  25.8006538   3.6289844
  38.5391638  26.7200290   4.3488191  38.0951815  26.5281523   3.7322220
  36.6650848  27.8051530   7.5081722  37.3885047  27.3524056   7.3292741
  36.4000811  28.0856195   6.7254049  36.7332122  27.7802498   7.3660437
  32.4469638  27.9035408   5.6576737  31.8326631  27.3593458   5.9525372
  32.9636923  27.3899644   5.1782553  32.4325300  27.7471817   5.6300965
  28.4782580  28.1439991  11.0889608  27.6278210  28.2811705  11.2247253
  28.6410708  27.4103769  11.5337310  28.3766443  28.0554092  11.1745207
  39.0986162  26.7677940   6.0112271  39.6904003  27.4075191   6.0430469
  39.5345157  26.0700977   6.3004338  39.2504594  26.7596291   6.0593104
  30.9279552  31.1895313   6.6370165  30.4204643  31.7431160   7.0810796
  30.6306198  31.2503603   5.8188940  30.8084437  31.2801624   6.5818622
  30.1722037  36.1219871   3.5427172  29.9487692  35.3638700   3.9111198
  29.6831881  36.1517892   2.8207612  30.0665486  36.0142095   3.4903913
  34.2846697  23.7014411   5.1690629  34.2644624  23.5197706   6.0225408
  34.3325898  24.5726430   5.1450213  34.2881338  23.8030949   5.2913924
  32.2293027  30.2901603  11.0939106  32.1888882  29.6451280  10.5084262
  33.0416345  30.2338221  11.4064518  32.3436180  30.1860570  11.0536055
  28.8200494  36.3420329   0.9964257  28.4060893  35.6794459   0.6068098
  29.5047869  36.4898188   0.4759951  28.8598866  36.2660987   0.8620754
  32.1865789  35.5010414   1.7487873  31.7882072  35.6112685   0.9808694
  31.5717008  35.7092481   2.3314433  32.0364678  35.5483982   1.7219173
  27.9170736  23.9198540   7.6488863  27.4049639  23.3119723   8.0073895
  27.7450232  24.6355132   8.1162839  27.8160373  23.9361839   7.7705087
  22.7636450  22.3636115  10.2991225  22.5939041  23.0237490   9.7539432
  22.3202400  22.5742676  11.0203714  22.6735784  22.4922097  10.3252855
  31.7939806  21.8422784  10.0891119  32.3511236  21.6136594   9.4569584
  31.4700871  22.6028450   9.8126331  31.8286216  21.9206621   9.9547616
  29.5122923  24.9290438  11.0543126  30.2634250  25.2442115  11.3682680
  29.7045500  24.7269609  10.2277048  29.6514337  24.9457819  10.9786522
  36.1500884  28.4865193   4.6380257  36.5755956  27.9639615   4.0850682
  35.7857804  29.0846031   4.1168880  36.1587487  28.4975420   4.4789267
  25.7854964  36.7829411   3.3977603  26.1001523  37.5965799   3.4055384
  26.1948377  36.3979629   4.0659762  25.8923062  36.8458113   3.4981694
  32.7379484  32.1999458   0.9681415  33.2090662  32.9139720   1.1371400
  33.0739662  31.5998208   1.5041284  32.8574599  32.2170922   1.0713791
  34.8256468  33.8100771  13.1473487  34.9353434  33.0209332  13.5030234
  35.1547365  33.7206707  12.3447825  34.8908874  33.6806624  13.0815877
  33.3753430  31.9917392   7.7309107  32.8274376  31.3675275   7.4629173
  33.8366459  32.1811664   7.0153187  33.3620639  31.9276442   7.5859538
  32.9411756  32.9968464   4.2618449  33.7610130  32.8531430   4.5234744
  32.6605834  33.6214663   4.8034886  33.0208500  33.0678816   4.3806388
  49.4125407  40.6533316  -2.7738675  49.3819411  41.5077953  -2.6020406
  50.0106755  40.3528609  -2.2152532  49.4962565  40.7349813  -2.6663873
  42.6125092  39.7408967   1.9814255  41.7562987  39.9017465   2.0323372
  42.6592745  38.8701031   2.0019316  42.4924203  39.6359769   1.9920321
  36.9966231  49.2771685  -2.2548513  36.2449131  48.8987223  -2.4832468
  37.4452243  49.3090119  -3.0029703  36.9515898  49.2257292  -2.3991011
  45.9218808  46.0095493  11.5874711  46.6285575  45.5147523  11.7161646
  46.1106743  46.4504574  10.8577369  46.0546714  46.0013843  11.4983757
  41.9895482  51.6511323  -0.8851854  42.3734862  52.2198222  -1.4247079
  41.9254624  50.9260833  -1.3646038  42.0368910  51.6286787  -1.0357992
  45.4576913  41.8001011   4.6245907  46.0032873  42.4786098   4.6839877
  45.3993789  41.6588472   3.7647488  45.5292827  41.8793013   4.5057967
  38.5750987  49.2890077   0.0114259  38.6761350  48.4790431   0.3211387
  37.9792733  49.1947024  -0.6186062  38.5023526  49.1555105  -0.0359502
  47.2341981  43.2285618  -4.5020365  47.1181507  43.9793304  -4.0728227
  48.0297868  42.9709571  -4.2524278  47.3346571  43.3020465  -4.4016274
  38.4151727  54.2067666   1.4129115  39.0589182  54.6480830   1.8025274
  38.7407983  53.4021092   1.3259374  38.5583556  54.1532861   1.4574593
  31.7716032  45.3110364  -0.3633407  31.5366216  44.4778016  -0.4701138
  31.9101672  45.5915029  -1.1772206  31.7571694  45.2293867  -0.4991052
  34.0706119  37.4796094   2.5350901  33.4511151  36.8888742   2.3660915
  33.9689983  38.0707530   1.9015224  33.9643795  37.4800177   2.4155890
  39.1172307  47.2179641  -3.2151023  39.4388148  47.7584848  -3.8189715
  39.7644403  46.6476413  -3.0828733  39.2598362  47.2138816  -3.2843988
  41.1674015  39.2195636  -3.1316636  41.8654179  39.3983764  -2.6395173
  41.4826347  38.6965975  -3.7546247  41.3169352  39.1689408  -3.1514626
  33.7975252  41.0248376   4.7794470  33.6733949  41.6110822   5.4144289
  34.4493537  40.5308572   5.0806745  33.8748902  41.0387180   4.9180399
  41.3561950  45.6066081  -3.1436845  41.7955586  44.9983182  -2.6982072
  41.2066613  45.2273454  -3.9151380  41.3983416  45.4604552  -3.1917677
  38.8233593  44.2010093   4.0581981  39.4682596  43.7082536   3.7392929
  39.0635370  44.3434880   4.8848059  38.9544178  44.1487535   4.1331514
  41.3619685  47.0464999   3.7088873  41.6442927  46.2516405   3.4875629
  42.0905845  47.5245586   3.7293934  41.5109248  46.9999596   3.6791889
  39.3400878  34.5888033   0.9504638  39.0104208  35.0399176   0.2808337
  38.6645880  34.5104196   1.4977645  39.1911315  34.6439168   0.9327862
  46.5477286  30.5773556  -0.8045751  46.2330727  31.2677034  -0.3725329
  46.0304228  30.5218338  -1.5060250  46.4241757  30.6708444  -0.8448802
  45.8889720  40.5778057  -4.6908340  45.3601191  40.7937690  -4.0311034
  46.4114740  41.2714195  -4.7707371  45.8878173  40.7121193  -4.6052741
  51.3437773  46.1524361   0.6824704  50.5135476  46.3635005   0.8458121
  51.2947025  45.3261416   0.4066988  51.2144508  46.0613967   0.6662070
  37.7789328  44.4741273  -5.8900872  37.1946543  44.9791305  -5.4835008
  37.3759423  44.2483660  -6.6304280  37.6328632  44.5149522  -5.9395847
  33.3333356  50.1896034   0.9122799  32.8500935  50.9146524   0.8882383
  34.1456675  50.4872165   1.0232957  33.3824104  50.3398388   0.9250078
  39.4047510  48.9828215   3.5172614  38.8874452  48.6235630   2.9133922
  40.1021902  48.4590390   3.5278680  39.4313092  48.8525903   3.4302872
  43.0611102  49.4323029   9.4788787  43.1494448  49.2449170  10.3266997
  43.4900815  48.7860459   9.0793633  43.1373205  49.3086037   9.5460538
  40.6281562  48.7154189   8.4606449  40.0652397  48.3026799   8.9846110
  41.3902586  48.6407095   8.8799592  40.6576011  48.6431590   8.5999449
  42.2366542  40.7206925  -7.4131952  42.4762546  40.9284909  -8.2256609
  42.5582383  39.9164434  -7.3043007  42.3203700  40.6321027  -7.5171399
  36.1877554  50.7052210   1.0643079  36.8898133  50.1904199   1.1215836
  36.1075037  51.0326362   1.8689954  36.2801314  50.6766437   1.1915871
  50.8391731  38.7994762   4.4775125  50.0020152  38.8696949   4.7122720
  50.8079962  38.8019257   3.6049428  50.7110014  38.8104989   4.3834673
  37.2356460  40.9427797  10.1923494  37.4076964  40.8333692  11.0408776
  37.7725818  41.5882203   9.9554686  37.3401464  41.0219799  10.2828591
  35.5128329  46.8958562   0.5728687  36.3517228  47.1281495   0.6202449
  35.5440098  46.0262874   0.5035722  35.6410047  46.8015509   0.5693332
  36.1381032  47.3159438   4.8741993  36.6779257  47.1730569   5.5445365
  35.4550978  47.7156188   5.2426019  36.1173186  47.3539109   5.0276414
  45.5621917  42.9950438   0.0687017  46.3179432  43.4281953   0.1075926
  45.6684241  42.3455208   0.6421653  45.6892088  42.9627922   0.1585043
  48.6002088  46.8223715   0.8189420  48.1637320  46.8260458   1.5748391
  48.2665004  47.5029214   0.3868997  48.4864708  46.9236171   0.8670252
  43.1731162  48.8632048  12.1432570  43.9571578  48.9762896  12.5088312
  42.9727756  48.0373185  12.3391256  43.2597187  48.7578768  12.2266956
  31.5418177  43.5359728   5.0276414  31.2756592  42.7198845   5.1867404
  31.5556741  43.5812884   4.1571930  31.5042899  43.4216633   4.9229896
  48.5199571  33.8637543   3.0618848  49.1625479  33.9335648   3.6480763
  48.7722592  33.1966766   2.5598390  48.6521703  33.7763892   3.0746127
  36.2916784  37.0738107   7.6743422  35.5988580  36.6035086   7.9204153
  36.9077111  36.8476411   8.2485129  36.2801313  36.9705238   7.7952574
  43.3301555  50.7742150   5.7899026  42.5316801  50.5341650   6.0472894
  43.7787567  50.8256543   6.5366073  43.2776166  50.7464542   5.9383950
  51.7346434  43.5404635  -0.2890943  52.3962868  42.9795304  -0.3895034
  51.0937846  43.0456666   0.0361748  51.7375302  43.3841044  -0.2558603
  31.9511591  44.3218508   2.3088158  31.7687164  44.2965394   1.4560451
  32.6861260  44.7917446   2.3477067  32.0325655  44.3879870   2.1886077
  48.0211265  44.5570018  -0.5478954  48.2566854  44.7015217  -1.3752103
  48.1700829  45.3212426  -0.1547440  48.0777068  44.6909072  -0.6115350
  35.0157342  41.0403511   8.8170267  35.7397315  41.0256541   9.3035162
  35.1173479  41.7498866   8.3192235  35.1375552  41.1428214   8.8149054
  49.8501722  43.3971684  -2.7109350  50.1809939  43.9299324  -3.3169255
  50.4234810  43.4510571  -2.0547399  49.9835401  43.4841253  -2.7031569
  42.3902292  44.5202595  13.6819214  41.5975273  44.8346107  13.8671834
  42.5051219  44.7354064  12.8439999  42.2897702  44.5986432  13.5857549
  45.0633611  41.2436586  -2.0285770  45.1580465  41.9825880  -1.5746145
  44.4392454  40.8154062  -1.5951206  44.9842641  41.2897907  -1.8977623
  43.3186085  44.4222799   8.6204511  43.8924946  43.7850043   8.7753075
  43.2400888  44.4226881   7.7514168  43.3919320  44.3287910   8.5150922
  31.9182501  41.2012008   2.4587225  32.4956004  41.0648459   3.0979470
  31.2196563  40.7447793   2.7132809  31.9003523  41.1134275   2.5909515
  38.6749803  42.8546064   0.6725708  38.4169048  42.0217799   0.6457008
  38.7298286  43.0803677  -0.1681791  38.6449581  42.7643835   0.5445845
  43.7550853  34.9574515   0.7729801  43.0507180  34.4683700   0.9313720
  43.8035828  34.9696989  -0.0981755  43.6580905  34.8864163   0.6669141
  37.6484515  40.4083827   1.1590603  37.0734107  40.5675995   1.7954564
  37.2720192  39.7719236   0.6959053  37.5087328  40.3381640   1.1845161
  41.3157804  38.8807176   6.0182981  40.9272237  38.4561394   5.3635173
  40.6512502  39.1289326   6.5260008  41.1604732  38.8545897   5.9970849
  50.9581073  38.6382181  -1.2069189  50.7017638  37.8262122  -1.3971306
  51.8010387  38.6459748  -1.4339001  51.0447099  38.5194178  -1.2684372
  27.3941334  40.0523901  -0.8264956  27.4801586  39.6755770  -0.0451427
  28.0217132  39.6784347  -1.3044998  27.4997885  39.9409384  -0.7819479
  45.1384166  32.5781805   3.5306966  45.5194677  31.8959976   3.9174840
  44.3347450  32.2891407   3.3482630  45.0760627  32.4348853   3.5611021
  42.4196742  43.1105780  -5.7840212  43.2337381  43.4020673  -5.8957440
  42.3555884  42.4565643  -6.3581919  42.5299481  43.0570975  -5.8851374
  48.6406232  45.7931777   8.6289364  48.4044870  44.9619841   8.5101425
  49.2849461  45.7417384   9.2144208  48.7000903  45.6629465   8.6975258
  38.2904651  46.5827298  -0.6567900  38.9278598  46.3439045  -0.1116106
  38.7159722  46.7864457  -1.3914739  38.4480817  46.5778308  -0.6850742
  32.9817293  48.8215634   3.2266404  33.0221438  49.0930486   2.3986184
  33.5411817  49.3457543   3.6424192  33.0700639  48.9391390   3.1658292
  38.9307466  41.8029588  -6.3193010  39.3152618  41.5837294  -5.5676465
  38.6819086  42.6292533  -6.1891934  38.9509538  41.8927734  -6.1891934
  49.6642653  45.5776225   4.6917658  49.3588470  46.3104282   5.0530974
  48.9448869  45.1714155   4.4110445  49.5129995  45.6257958   4.7030796
  40.6726123  47.0599721   1.0225887  40.7465131  46.8974892   1.8767737
  41.4895629  47.2489910   0.7786368  40.8042481  47.0636463   1.1123912
  55.3644445  42.2169226   4.0186003  55.2968946  42.2365185   3.1488589
  55.3500108  43.0599553   4.2441673  55.3523202  42.3442961   3.9238480
  34.4331879  47.4057583  -1.9479670  33.6069997  47.6519321  -2.0745391
  34.4943870  47.3269664  -1.0817612  34.3206046  47.4302532  -1.8390725
  36.6507903  33.4726524  -0.9884230  35.7830328  33.5449124  -0.9226620
  36.9383107  34.2748603  -0.7996255  36.5647651  33.6020671  -0.9509463
  45.7740792  33.6204384   7.3427092  46.5194384  33.4314194   6.9290518
  45.3578096  34.1462622   6.7840948  45.8225766  33.6706529   7.1991665
  53.1503063  40.9913612   2.2932597  53.7010984  40.3581681   2.5329689
  53.1347178  41.5229005   2.9848101  53.2288259  40.9762560   2.4311455
  39.8025453  44.8252210   6.8392491  39.3037147  45.5367977   6.9177379
  40.6125678  45.1452876   6.8010653  39.8481560  44.9779058   6.8449059
  37.1536624  52.0001846  -1.1800490  36.9336919  51.7099201  -0.3873823
  36.9331146  51.3416801  -1.7082578  37.0884218  51.8601554  -1.1411582
  36.0653571  44.0875163   1.0855211  35.7766820  43.4612634   1.6200939
  36.9336919  44.0295450   1.1519892  36.1513823  43.9862707   1.1746166
  46.8531469  39.2309946   1.4037193  46.5096235  38.5100281   1.7544443
  46.9524511  39.0223797   0.5615552  46.8173512  39.0934149   1.3308873
  39.3204580  53.3731236  -2.3969798  39.9728638  52.8407678  -2.1678772
  38.6230188  53.0199888  -2.0101924  39.3135298  53.2420759  -2.3057630
  36.2685844  45.7270414  -2.9902424  37.0231812  46.1083453  -2.7766961
  35.6756457  46.1781557  -2.5355727  36.2922558  45.8499241  -2.8919545
  47.3144498  45.6935650  -3.0538819  47.8802531  46.3528860  -3.1380276
  46.6672401  46.0385348  -2.5822416  47.3023254  45.8417591  -2.9966062
  38.7292511  37.6833254  12.1354789  37.9192287  37.9891034  12.0244631
  39.2067198  38.4038836  12.2507373  38.6795990  37.8347855  12.1361860
  37.5884071  46.8978975   2.3837692  37.0664825  47.0379267   3.0689557
  37.9758091  46.1389639   2.5739809  37.5687772  46.8064499   2.5138768
  39.0150397  43.9282994  -2.2180817  38.8193179  44.5357728  -2.8120514
  39.2384742  43.2350938  -2.6989143  39.0185038  43.9160519  -2.3764736
  37.4128927  40.8137732  -2.0999949  38.1351579  40.9778890  -2.5596143
  36.9336919  41.5347397  -2.2060609  37.4492657  40.9435961  -2.1834335
  45.3722434  37.1501531   3.2796736  44.5333535  37.1762810   3.0434999
  45.4426802  37.7972266   3.8602083  45.2590828  37.2497657   3.3305853
  35.0636543  43.2195804   7.0054191  35.5757640  43.4980058   6.3562951
  34.7772886  43.9585098   7.3717004  35.0971407  43.3698158   6.9644069
  43.8191713  34.0486908  -1.9875648  44.5218065  33.8494656  -2.4655690
  43.5535901  33.2762850  -1.6806804  43.8838345  33.9049874  -2.0130206
  49.2479958  42.3569517   0.5657978  49.1613933  42.5124943   1.4192757
  48.7930438  43.0007593   0.1917383  49.1683215  42.4745273   0.6365085
  38.5820269  35.3122193   7.0655233  38.3903466  35.3277327   7.9154656
  39.4318865  35.5085867   7.0421888  38.6795991  35.3436544   7.1878527
  32.9667182  37.8413174   5.0439049  32.8252674  36.9897115   5.1683557
  33.2507745  37.8841835   4.2201255  32.9875028  37.7212924   4.9406673
  43.1205774  39.6780265  -0.8116463  42.8740488  39.5976015   0.0220326
  43.4490897  38.8933732  -1.0053935  43.1327018  39.5506530  -0.7168939
  47.0153823  46.3863624   2.9770319  46.8768182  47.0844670   3.4819061
  46.2353821  46.2312280   2.6206500  46.8797050  46.4663791   2.9996593
  45.3531908  42.6859999   9.2292700  45.3479947  41.8139816   9.2335127
  46.0592902  42.8848168   8.7562156  45.4576912  42.5863873   9.1599736
  39.0802801  42.4136983   8.6006521  39.2246177  42.9938191   7.9649631
  39.4278450  42.7913280   9.3056375  39.1530263  42.5557687   8.6105515
  41.2522719  41.6127152   6.3831652  40.5046033  41.8058166   5.9779930
  41.4064244  40.7872371   6.1455773  41.1645146  41.5192263   6.2877058
  38.1530556  50.6039755   5.4667547  38.3020120  50.0442671   4.8140952
  38.9330558  50.6831757   5.8500066  38.2904650  50.5325320   5.4264497
  40.6783857  50.7754398   6.7452038  40.6027528  50.1063208   7.3002826
  40.6073716  51.4772186   7.2592704  40.6564464  50.7799305   6.9028886
  41.4924496  35.5077702   7.2727056  41.9497110  36.2401677   7.3999848
  41.5680825  35.0844167   8.0314312  41.5715466  35.5534940   7.4028132
  33.7357487  35.7543522   8.3616500  33.1999676  35.1423880   8.6777267
  33.7975252  36.3291658   9.0150166  33.6653120  35.7490450   8.5051926
  45.9651822  28.6867577   1.1420899  46.0835390  29.1444041   0.4088201
  45.7913997  27.8812839   0.8557116  45.9570993  28.6361350   0.9921832
  41.3354104  49.2955397  -2.4224356  42.1003995  49.0265040  -2.7441692
  41.2332194  48.8105407  -1.7054293  41.4335599  49.1844961  -2.3644528
  39.3706874  37.4979806   4.1168880  38.5802948  37.3171266   4.4386216
  39.7667497  36.7206759   4.0999174  39.3123750  37.3567267   4.1621428
  44.7550560  45.1322236   1.8428326  44.0795562  44.9007469   2.3441713
  44.7642936  44.5243419   1.2170431  44.6569065  45.0081162   1.8244478
  41.8844704  39.9740065   8.5992379  41.8203845  40.8350022   8.4712516
  42.0241892  39.6572058   7.7987930  41.8960174  40.0540232   8.4620592
  40.5663798  42.6672205   2.7408582  40.1426047  42.8676704   2.0047600
  40.3908653  41.8201053   2.8532882  40.4774679  42.5720986   2.6482272
  40.0675491  54.1822718   5.2030039  40.5571422  53.4833507   5.0205704
  39.4959724  53.8846588   5.7906096  40.0560021  54.0348941   5.2631080
  35.8546243  43.1624256  -1.8263446  36.0110862  43.0971059  -0.9707454
  36.1946836  43.9372809  -2.0384766  35.9279478  43.2673454  -1.7308852
  42.3925387  42.5382140  -2.9570083  42.9340933  42.0352521  -2.4931462
  42.7071947  42.4847334  -3.7680597  42.5189785  42.4561561  -3.0086270
  46.2642495  46.7484787  14.1556830  47.0777360  46.4769936  14.3161962
  46.1037461  46.4492327  13.3517026  46.3612443  46.6639713  14.0602236
  43.5414657  37.4318444   7.0952218  43.7556626  36.7929358   6.5415572
  42.9248556  37.8764268   6.6660080  43.4819986  37.4028588   6.9502649
  32.4280504  40.3459207  -1.5102679  32.8079469  40.7643751  -2.1742411
  31.8535869  40.9272662  -1.2033835  32.3991829  40.4937065  -1.5625938
  45.7053745  39.0407509   8.0335525  44.8930427  38.7333400   8.1148698
  46.1643679  38.5606509   8.5978237  45.6534130  38.9244002   8.1290119
  45.1159000  46.9187181  -1.5187531  44.7573654  47.0901824  -0.7423498
  44.6297710  47.3800387  -2.0759532  44.9917696  47.0126152  -1.4862262
  42.9329386  30.5418380   2.0839561  42.0622943  30.5157101   2.0372870
  43.1869727  30.3695572   1.2665406  42.8422946  30.5128524   1.9559697
  42.8007252  40.4467581  12.8164227  43.2706884  41.0709697  13.2032101
  42.8469133  39.7784556  13.3757442  42.8775128  40.4402261  12.9564299
  39.9578526  32.5524608   3.5413031  39.4417015  31.8604800   3.6664610
  39.3972455  33.2195385   3.4875630  39.7985039  32.5487866   3.5519097
  42.0270759  33.0917568   5.3705884  41.6402513  33.1166600   6.1519414
  41.5403697  32.5259247   4.9180400  41.8983268  33.0113319   5.4193787
  46.2763739  47.8091077   9.4279670  46.9143459  47.3151273   9.0942126
  45.6337830  47.7368478   8.8431897  46.2757965  47.7250086   9.2922025
  48.0020739  39.6580223   3.9945586  47.5748347  39.5706572   3.2393685
  47.3646792  39.7657999   4.5800430  47.8450346  39.6612883   3.9691027
  41.6927901  29.9784554   7.6616144  42.3221019  30.5144854   7.3837214
  41.8613764  29.8861913   8.5129709  41.8105696  30.0445916   7.7464672
  41.4941816  34.7655748   9.9342555  42.3215245  34.4940897   9.9901170
  41.5149662  35.5616590  10.2906373  41.6194666  34.8435503   9.9957738
  46.3317995  48.5010886   6.0685027  47.1210374  48.1499950   6.1887109
  46.5061593  49.3147274   5.8061661  46.4738277  48.5696743   6.0472895
  36.0711306  41.9119611   3.1212816  35.2299312  41.8123485   3.3291710
  36.2801314  42.6815092   3.4727136  35.9775998  42.0111655   3.2040131
  33.5486873  39.5339148   0.9497566  33.1543571  39.6082160   0.1747676
  32.9926990  39.9197095   1.5005928  33.4089685  39.6020923   0.9165226
  45.1851820  32.5120442   0.6301445  45.3901413  32.4442750   1.4758443
  44.8578244  33.3179263   0.5622623  45.1667068  32.6206383   0.7461101
  39.8827971  39.8401010   2.3710413  39.5791108  39.2856999   2.9720821
  39.1807392  40.0193220   1.8838448  39.7344181  39.7845793   2.3880119
  38.9394068  37.1501530  -3.0644885  39.2153802  36.4320443  -3.4767317
  39.5392737  37.7486450  -3.2723779  39.0687332  37.1321901  -3.1564124
  37.9446322  47.0550731   7.0782511  37.8366677  47.0652793   7.9444569
  38.1542103  47.8805512   6.8887465  37.9596433  47.1791806   7.1786603
  48.4385507  33.0652207   0.1104211  47.8259821  33.5522609   0.4957943
  48.5349682  32.3895697   0.6541862  48.3623405  33.0370515   0.2483069
  35.9620114  44.3063374   4.5404449  35.3708047  44.9472872   4.5107464
  36.7241137  44.7300991   4.5135748  35.9868374  44.4639212   4.5319596
  36.3580737  35.4665371   5.2072466  36.8182218  35.5404301   5.9447590
  36.4036843  36.2646625   4.8572288  36.4331292  35.5959518   5.2645223
  38.0064086  36.1332066   9.7744493  37.6149651  35.4865413  10.2100271
  38.1749949  36.7243501  10.3938749  37.9734997  36.1246334   9.9307199
  52.0810535  44.1369143   5.5381727  52.1393659  44.5855792   6.2841703
  51.4477003  44.5467956   5.1011807  51.9961830  44.2642878   5.5834275
  45.7209630  49.7572685   1.9736473  45.5229319  50.2463500   1.2792685
  45.0997341  49.9613927   2.5520607  45.5997194  49.8589223   1.9559696
  39.7817608  41.5257582  -3.6853283  40.5259653  41.9131858  -3.4470333
  39.9278305  40.6815007  -3.5212795  39.9128193  41.4588055  -3.6259313
  41.6997184  33.3207841   1.3478579  40.8533229  33.4930649   1.2219929
  41.6968316  32.5157185   1.6844407  41.5744334  33.2268870   1.3789706
  42.7695484  37.0983055   2.2140637  42.2955438  36.5724817   2.7245948
  43.1413620  36.5512528   1.6455498  42.7545373  36.9399052   2.2055784
  33.1468514  39.0954562   7.5824183  34.0094127  38.9950271   7.4961512
  32.8160297  38.5149271   7.0209755  33.2253711  38.9946189   7.4869588
  49.0332215  42.1585431   3.6247417  48.7930438  41.3191846   3.6289844
  49.5124222  42.2385598   4.3488191  49.0684398  42.0466831   3.7322220
  44.6978984  37.9919610  -4.7233609  44.1702002  38.0748354  -5.4127901
  45.1574692  38.7337481  -4.7268965  44.6880834  38.1140272  -4.8258914
  51.0337402  38.9386888   1.5776676  50.7947172  38.8982722   0.7397461
  51.1971303  39.7858040   1.7042398  51.0227705  39.0578973   1.4730158
  47.6383432  43.3236837   7.5081722  48.3617631  42.8709364   7.3292741
  47.3733394  43.6041503   6.7254049  47.7064705  43.2987806   7.3660437
  36.5070300  37.9197011   4.2434601  35.8823370  37.9315403   3.6360553
  36.1715895  38.3957186   4.8925841  36.3655792  37.9915528   4.2491169
  33.2195976  45.9797471   5.6838365  32.6895900  45.2889910   5.7333340
  33.4921069  45.9707656   4.8551074  33.1820698  45.8764603   5.5685781
  43.4202221  43.4220716   5.6576737  42.8059215  42.8778766   5.9525372
  43.9369506  42.9084952   5.1782553  43.4057884  43.2657125   5.6300965
  42.6598519  44.4924986   3.3921035  42.2326127  43.8674704   2.9586471
  42.6523463  44.2099908   4.2180042  42.5957660  44.3577766   3.4500863
  35.7761046  39.5290159   6.4609469  35.9354532  38.7733483   6.8661191
  35.5953939  40.0781098   7.1150207  35.7726405  39.4983973   6.6172175
  43.7181349  31.6951394   7.0160259  43.2221910  31.8915069   6.3251825
  44.4750411  32.0944063   6.8449060  43.7568173  31.7829128   6.8880395
  40.9884228  35.3693740   3.6063569  41.0126715  34.8353853   2.9176349
  41.2395702  34.8611049   4.2689160  41.0294147  35.2154644   3.6028214
  28.4991818  42.6525235   3.0406713  28.3935267  42.6072080   2.1758797
  27.7492038  42.9979016   3.3220998  28.3727421  42.6966143   2.9544043
  37.2685551  34.0964559   2.9869314  37.3083922  34.5973765   3.7004021
  36.4435215  34.1874952   2.7175237  37.1525076  34.1846375   3.0519852
  39.4515163  43.6625298  11.0889608  38.6010794  43.7997013  11.2247253
  39.6143291  42.9289077  11.5337310  39.3499027  43.5739400  11.1745207
  38.6899914  40.6125068   5.2843213  37.8591844  40.7798886   5.0778461
  38.6351431  40.2361019   6.0692098  38.5589329  40.5814800   5.3691741
  36.4983697  34.1033961  10.9199623  37.1236401  33.5596094  11.1929056
  36.0434177  33.6228879  10.3507414  36.5231958  33.9523443  10.8761217
  37.0635958  38.8880660  -4.1866670  37.2038919  39.3853124  -3.4838028
  37.5618491  38.1866954  -4.0452456  37.1577039  38.8582639  -4.0615091
  50.0718746  42.2863248   6.0112271  50.6636586  42.9260499   6.0430469
  50.5077740  41.5886285   6.3004338  50.2237177  42.2781599   6.0593104
  41.9012136  46.7080621   6.6370165  41.3937227  47.2616468   7.0810796
  41.6038782  46.7688911   5.8188940  41.7817021  46.7986932   6.5818622
  44.0674318  35.0733940   5.4794828  44.4929390  34.6206467   4.8678355
  43.4531311  34.5194011   5.7559616  44.0402963  34.9247917   5.4299853
  33.5989168  41.9515612  -3.5884547  34.1081397  42.5480119  -3.2073241
  34.0723440  41.6841585  -4.2708127  33.7432544  42.0001427  -3.6330024
  42.5068541  31.5449040  -1.1114595  41.8636859  31.3946686  -0.5429456
  42.1667948  31.2991385  -1.8765490  42.3613618  31.4861163  -1.1411580
  47.0967887  39.5008467  -1.6884586  46.4259077  40.0438169  -1.8171521
  47.7907638  39.9703322  -1.9302891  47.0996755  39.6506738  -1.7429058
  41.1454621  51.6405179   3.5427172  40.9220275  50.8824008   3.9111198
  40.6564464  51.6703200   2.8207612  41.0398070  51.5327403   3.4903913
  47.2596015  35.9564351   1.2205787  47.6123625  35.5294073   1.8951586
  46.4010816  35.8715194   1.3506863  47.1845459  35.8809091   1.3400797
  35.9579700  38.5871870  -0.7211366  35.2391689  39.0036003  -0.4538503
  36.3292062  39.1526109  -1.2719728  35.9071632  38.7321152  -0.7628559
  45.2579281  39.2199719   5.1690629  45.2377208  39.0383014   6.0225408
  45.3058481  40.0911738   5.1450213  45.2613922  39.3216257   5.2913924
  43.2025610  45.8086911  11.0939106  43.1621465  45.1636588  10.5084262
  44.0148929  45.7523529  11.4064518  43.3168764  45.7045878  11.0536055
  39.7933078  51.8605637   0.9964257  39.3793477  51.1979767   0.6068098
  40.4780452  52.0083496   0.4759951  39.8331450  51.7846295   0.8620754
  43.1598372  51.0195722   1.7487873  42.7614655  51.1297993   0.9808694
  42.5449592  51.2277789   2.3314433  43.0097261  51.0669290   1.7219173
  41.7326274  37.6269870  -5.3837987  41.1391113  37.9486867  -5.9353420
  41.7701552  36.7810966  -5.5916881  41.6500663  37.5494198  -5.4955216
  48.6920075  31.0782762   2.1490100  48.1850939  30.3711902   2.0811277
  49.4887509  30.7475951   2.2791176  48.7347314  30.9255914   2.1589094
  44.6084091  37.5849375  -1.9536237  44.3797784  37.6082076  -2.7957879
  44.8682167  36.7606842  -1.8341226  44.6130279  37.4665455  -2.0611039
  38.8903319  39.4383848   7.6488863  38.3782222  38.8305031   8.0073895
  38.7182815  40.1540440   8.1162839  38.7892956  39.4547147   7.7705087
  33.7369034  37.8821423  10.2991225  33.5671624  38.5422798   9.7539432
  33.2934984  38.0927984  11.0203714  33.6468367  38.0107405  10.3252855
  37.6628853  36.1225921  -0.6582041  38.1386219  36.4843001  -1.2931860
  37.1617453  36.7782389  -0.3781898  37.6594212  36.2720110  -0.7105300
  42.7672389  37.3608092  10.0891119  43.3243820  37.1321902   9.4569584
  42.4433454  38.1213758   9.8126331  42.8018800  37.4391929   9.9547616
  30.6371098  40.7868289   5.5579715  30.0897818  40.1168934   5.6760583
  31.4263477  40.4198136   5.6223182  30.6723282  40.6333275   5.5848416
  40.4855507  40.4475746  11.0543126  41.2366834  40.7627422  11.3682680
  40.6778083  40.2454917  10.2277048  40.6246921  40.4643127  10.9786522
  47.3340797  36.5749312  -1.7033078  47.3335023  36.4197968  -0.8448802
  47.1296977  37.4212299  -1.7591693  47.3040575  36.6769933  -1.5845139
  29.3958068  39.9989096   2.7125738  29.2179829  39.5465705   3.4380654
  29.1077090  40.8015258   2.8964216  29.3271021  40.0511654   2.8469241
  45.0581649  41.2546814   1.9503128  45.5535314  40.5369809   1.9107149
  44.2481425  40.9517611   1.8357615  45.0125542  41.1044460   1.9276854
  40.5040260  45.1044627  -5.8999867  39.6951583  44.7811301  -5.9466558
  41.0115169  44.3977849  -5.9671618  40.4589927  44.9525943  -5.9169573
  31.1330538  42.5316820  -0.1752503  30.2676057  42.5202511  -0.2869732
  31.2329354  42.3447043   0.6718636  31.0204705  42.5022881  -0.0663558
  47.1233468  44.0050501   4.6380257  47.5488539  43.4824923   4.0850682
  46.7590388  44.6031339   4.1168880  47.1320070  44.0160728   4.4789267
  36.7587548  52.3014719   3.3977603  37.0734107  53.1151107   3.4055384
  37.1680961  51.9164937   4.0659762  36.8655646  52.3643421   3.4981694
  43.7112067  47.7184765   0.9681415  44.1823245  48.4325028   1.1371400
  44.0472246  47.1183516   1.5041284  43.8307182  47.7356230   1.0713791
  45.7989052  49.3286079  13.1473487  45.9086017  48.5394639  13.5030234
  46.1279948  49.2392015  12.3447825  45.8641458  49.1991932  13.0815877
  40.6281562  32.4912236   7.9239509  40.7609468  31.6943229   8.2520485
  41.0126715  33.0178639   8.5037785  40.7037891  32.4512153   8.0583012
  44.3486014  47.5102700   7.7309107  43.8006960  46.8860583   7.4629173
  44.8099042  47.6996972   7.0153187  44.3353223  47.4461750   7.5859538
  43.7013917  29.4142562   4.5220603  42.8959881  29.3040292   4.8388441
  43.5720653  29.5155018   3.6650469  43.5634050  29.4126232   4.4428643
  47.1579878  35.5788054   5.1160300  46.5742867  36.0797261   4.7037867
  47.4784172  35.0717610   4.4824623  47.1193053  35.5779889   4.9618807
  38.2870009  32.4871411   6.1717403  38.8314422  32.1462538   6.7621745
  38.3406945  33.3456873   6.3138688  38.3759128  32.5626670   6.2799277
  34.1000568  46.2487827   3.0456211  34.7045425  46.2083661   2.4170032
  33.8927880  47.0958979   3.0760267  34.1589465  46.3675830   2.9572328
  43.9144340  48.5153772   4.2618449  44.7342714  48.3716738   4.5234744
  43.6338418  49.1399971   4.8034886  43.9941083  48.5864124   4.3806388
  29.3351850  45.2322445   2.9155134  29.2376128  44.4218716   3.2245191
  30.1180720  45.2114238   2.5301402  29.4367987  45.1089535   2.9041997
  56.8951392  61.5280801  11.5874711  57.6018159  61.0332831  11.7161646
  57.0839327  61.9689882  10.8577369  57.0279297  61.5199151  11.4983757
  45.0438703  52.9981402   2.5350901  44.4243734  52.4074049   2.3660915
  44.9422566  53.5892837   1.9015224  44.9376378  52.9985485   2.4155890
  44.7707836  56.5433684   4.7794470  44.6466533  57.1296129   5.4144289
  45.4226120  56.0493880   5.0806745  44.8481485  56.5572488   4.9180399
  50.3133462  50.1073341   0.9504638  49.9836792  50.5584484   0.2808337
  49.6378464  50.0289504   1.4977645  50.1643898  50.1624476   0.9327862
  48.2089044  56.4613105  10.1923494  48.3809547  56.3519000  11.0408776
  48.7458401  57.1067511   9.9554686  48.3134048  56.5405107  10.2828591
  54.1463745  64.3817356  12.1432570  54.9304162  64.4948204  12.5088312
  53.9460340  63.5558493  12.3391256  54.2329771  64.2764076  12.2266956
  42.5150761  59.0545036   5.0276414  42.2489176  58.2384153   5.1867404
  42.5289325  59.0998192   4.1571930  42.4775483  58.9401941   4.9229896
  47.2649367  52.5923415   7.6743422  46.5721164  52.1220394   7.9204153
  47.8809694  52.3661719   8.2485129  47.2533897  52.4890546   7.7952574
  45.9889926  56.5588819   8.8170267  46.7129898  56.5441849   9.3035162
  46.0906063  57.2684174   8.3192235  46.1108135  56.6613522   8.8149054
  53.3634875  60.0387903  13.6819214  52.5707856  60.3531415  13.8671834
  53.4783803  60.2539372  12.8439999  53.2630286  60.1171740  13.5857549
  54.2918668  59.9408107   8.6204511  54.8657530  59.3035351   8.7753075
  54.2133472  59.9412189   7.7514168  54.3651903  59.8473218   8.5150922
  42.8915085  56.7197316   2.4587225  43.4688587  56.5833767   3.0979470
  42.1929146  56.2633101   2.7132809  42.8736106  56.6319583   2.5909515
  52.2890388  54.3992484   6.0182981  51.9004820  53.9746702   5.3635173
  51.6245086  54.6474633   6.5260008  52.1337315  54.3731205   5.9970849
  38.3673918  55.5709209  -0.8264956  38.4534170  55.1941078  -0.0451427
  38.9949715  55.1969655  -1.3044998  38.4730469  55.4594691  -0.7819479
  56.1116749  48.0967113   3.5306966  56.4927261  47.4145284   3.9174840
  55.3080033  47.8076715   3.3482630  56.0493211  47.9534161   3.5611021
  50.0708590  50.6021311  13.3969574  49.7562031  51.3720874  13.1339137
  49.7498522  50.0391567  12.8121801  49.9767509  50.6331580  13.2710924
  47.6240487  48.9911832  -0.9884230  46.7562912  49.0634432  -0.9226620
  47.9115691  49.7933911  -0.7996255  47.5380235  49.1205979  -0.9509463
  56.7473375  49.1389692   7.3427092  57.4926967  48.9499502   6.9290518
  56.3310680  49.6647930   6.7840948  56.7958350  49.1891837   7.1991665
  50.7758037  60.3437517   6.8392491  50.2769731  61.0553285   6.9177379
  51.5858261  60.6638184   6.8010653  50.8214144  60.4964366   6.8449059
  49.7025095  53.2018562  12.1354789  48.8924871  53.5076342  12.0244631
  50.1799782  53.9224144  12.2507373  49.6528574  53.3533163  12.1361860
  46.0369127  58.7381112   7.0054191  46.5490224  59.0165365   6.3562951
  45.7505470  59.4770406   7.3717004  46.0703990  58.8883466   6.9644069
  49.5552852  50.8307501   7.0655233  49.3636049  50.8462635   7.9154656
  50.4051448  51.0271175   7.0421888  49.6528574  50.8621852   7.1878527
  43.9399765  53.3598482   5.0439049  43.7985257  52.5082423   5.1683557
  44.2240329  53.4027143   4.2201255  43.9607611  53.2398232   4.9406673
  56.3264492  58.2045307   9.2292700  56.3212530  57.3325124   9.2335127
  57.0325486  58.4033476   8.7562156  56.4309496  58.1049181   9.1599736
  50.0535385  57.9322291   8.6006521  50.1978761  58.5123499   7.9649631
  50.4011034  58.3098588   9.3056375  50.1262846  58.0742995   8.6105515
  52.2255302  57.1312459   6.3831652  51.4778616  57.3243474   5.9779930
  52.3796828  56.3057679   6.1455773  52.1377730  57.0377571   6.2877058
  52.4657079  51.0263010   7.2727056  52.9229693  51.7586984   7.3999848
  52.5413408  50.6029475   8.0314312  52.5448049  51.0720248   7.4028132
  44.7090071  51.2728830   8.3616500  44.1732260  50.6609188   8.6777267
  44.7707835  51.8476966   9.0150166  44.6385703  51.2675758   8.5051926
  56.9384405  44.2052885   1.1420899  57.0567973  44.6629349   0.4088201
  56.7646581  43.3998147   0.8557116  56.9303576  44.1546657   0.9921832
  50.3439457  53.0165114   4.1168880  49.5535532  52.8356574   4.4386216
  50.7400080  52.2392067   4.0999174  50.2856334  52.8752575   4.1621428
  52.8577288  55.4925373   8.5992379  52.7936429  56.3535330   8.4712516
  52.9974475  55.1757366   7.7987930  52.8692758  55.5725540   8.4620592
  54.5147240  52.9503752   7.0952218  54.7289210  52.3114666   6.5415572
  53.8981140  53.3949576   6.6660080  54.4552570  52.9213896   6.9502649
  56.6786328  54.5592817   8.0335525  55.8663010  54.2518708   8.1148698
  57.1376263  54.0791817   8.5978237  56.6266713  54.4429310   8.1290119
  53.9061969  46.0603688   2.0839561  53.0355527  46.0342409   2.0372870
  54.1602310  45.8880880   1.2665406  53.8155529  46.0313831   1.9559697
  53.7739836  55.9652889  12.8164227  54.2439467  56.5895005  13.2032101
  53.8201716  55.2969864  13.3757442  53.8507712  55.9587569  12.9564299
  50.9311110  48.0709916   3.5413031  50.4149598  47.3790108   3.6664610
  50.3705038  48.7380693   3.4875630  50.7717623  48.0673174   3.5519097
  53.0003343  48.6102876   5.3705884  52.6135096  48.6351908   6.1519414
  52.5136280  48.0444555   4.9180400  52.8715852  48.5298627   5.4193787
  52.6660485  45.4969862   7.6616144  53.2953603  46.0330162   7.3837214
  52.8346347  45.4047221   8.5129709  52.7838279  45.5631224   7.7464672
  52.4674400  50.2841056   9.9342555  53.2947829  50.0126205   9.9901170
  52.4882246  51.0801898  10.2906373  52.5927250  50.3620811   9.9957738
  47.0443889  57.4304919   3.1212816  46.2031896  57.3308793   3.3291710
  47.2533897  58.2000399   3.4727136  46.9508582  57.5296963   3.2040131
  47.3313320  50.9850679   5.2072466  47.7914802  51.0589609   5.9447590
  47.3769427  51.7831933   4.8572288  47.4063875  51.1144826   5.2645223
  48.9796670  51.6517374   9.7744493  48.5882235  51.0050721  10.2100271
  49.1482533  52.2428809  10.3938749  48.9467580  51.6431642   9.9307199
  52.6729767  48.8393149   1.3478579  51.8265812  49.0115957   1.2219929
  52.6700900  48.0342493   1.6844407  52.5476917  48.7454178   1.3789706
  44.1201098  54.6139870   7.5824183  44.9826711  54.5135579   7.4961512
  43.7892881  54.0334579   7.0209755  44.1986294  54.5131497   7.4869588
  47.4802884  53.4382319   4.2434601  46.8555954  53.4500711   3.6360553
  47.1448479  53.9142494   4.8925841  47.3388376  53.5100836   4.2491169
  46.7493629  55.0475467   6.4609469  46.9087116  54.2918791   6.8661191
  46.5686523  55.5966406   7.1150207  46.7458988  55.0169280   6.6172175
  54.6913932  47.2136702   7.0160259  54.1954494  47.4100377   6.3251825
  55.4482994  47.6129371   6.8449060  54.7300757  47.3014436   6.8880395
  51.9616812  50.8879048   3.6063569  51.9859299  50.3539161   2.9176349
  52.2128285  50.3796357   4.2689160  52.0026731  50.7339952   3.6028214
  39.4724402  58.1710543   3.0406713  39.3667851  58.1257388   2.1758797
  38.7224622  58.5164324   3.3220998  39.3460005  58.2151451   2.9544043
  48.2418134  49.6149866   2.9869314  48.2816506  50.1159073   3.7004021
  47.4167799  49.7060260   2.7175237  48.1257660  49.7031683   3.0519852
  50.4247747  59.1810606  11.0889608  49.5743378  59.3182321  11.2247253
  50.5875875  58.4474385  11.5337310  50.3231611  59.0924708  11.1745207
  49.6632497  56.1310376   5.2843213  48.8324427  56.2984194   5.0778461
  49.6084015  55.7546327   6.0692098  49.5321912  56.1000108   5.3691741
  47.4716281  49.6219269  10.9199623  48.0968984  49.0781402  11.1929056
  47.0166761  49.1414187  10.3507414  47.4964541  49.4708751  10.8761217
  55.0406902  50.5919248   5.4794828  55.4661973  50.1391775   4.8678355
  54.4263895  50.0379319   5.7559616  55.0135547  50.4433224   5.4299853
  54.1758194  61.3272219  11.0939106  54.1354049  60.6821896  10.5084262
  54.9881512  61.2708836  11.4064518  54.2901348  61.2231186  11.0536055
  59.6652658  46.5968070   2.1490100  59.1583523  45.8897210   2.0811277
  60.4620092  46.2661259   2.2791176  59.7079898  46.4441222   2.1589094
  49.8635903  54.9569156   7.6488863  49.3514806  54.3490339   8.0073895
  49.6915399  55.6725748   8.1162839  49.7625540  54.9732455   7.7705087
  44.7101617  53.4006731  10.2991225  44.5404208  54.0608106   9.7539432
  44.2667567  53.6113292  11.0203714  44.6200951  53.5292713  10.3252855
  53.7404973  52.8793400  10.0891119  54.2976403  52.6507210   9.4569584
  53.4166038  53.6399066   9.8126331  53.7751383  52.9577237   9.9547616
  41.6103682  56.3053596   5.5579715  41.0630401  55.6354242   5.6760583
  42.3996060  55.9383444   5.6223182  41.6455866  56.1518583   5.5848416
  51.4588090  55.9661054  11.0543126  52.2099417  56.2812730  11.3682680
  51.6510667  55.7640224  10.2277048  51.5979504  55.9828435  10.9786522
  40.3690651  55.5174404   2.7125738  40.1912413  55.0651013   3.4380654
  40.0809674  56.3200566   2.8964216  40.3003605  55.5696962   2.8469241
  56.7721635  64.8471387  13.1473487  56.8818601  64.0579947  13.5030234
  57.1012532  64.7577323  12.3447825  56.8374041  64.7177240  13.0815877
  51.6014146  48.0097544   7.9239509  51.7342051  47.2128537   8.2520485
  51.9859299  48.5363947   8.5037785  51.6770475  47.9697461   8.0583012
  54.6746501  44.9327870   4.5220603  53.8692465  44.8225600   4.8388441
  54.5453236  45.0340326   3.6650469  54.5366634  44.9311540   4.4428643
  58.1312461  51.0973362   5.1160300  57.5475450  51.5982569   4.7037867
  58.4516756  50.5902918   4.4824623  58.0925637  51.0965197   4.9618807
  49.2602593  48.0056719   6.1717403  49.8047006  47.6647846   6.7621745
  49.3139528  48.8642181   6.3138688  49.3491712  48.0811978   6.2799277
  40.3084434  60.7507753   2.9155134  40.2108712  59.9404024   3.2245191
  41.0913303  60.7299546   2.5301402  40.4100570  60.6274843   2.9041997
  45.9593319  23.6862918   1.0896876  46.7728184  23.4148067   1.2502009
  45.7988285  23.3870458   0.2857072  46.0563267  23.6017844   0.9942282
  45.4939876  26.2664210   0.0813534  45.6036841  25.4772771   0.4370281
  45.8230772  26.1770146  -0.7212128  45.5592282  26.1370063   0.0155924
  56.5902216  38.4658932  -1.4785242  57.2968983  37.9710963  -1.3498307
  56.7790151  38.9068013  -2.2082584  56.7230121  38.4577282  -1.5676196
  51.2964970  41.1717628  -4.6053504  50.7335804  40.7590238  -4.0813843
  52.0585993  41.0970534  -4.1860361  51.3259418  41.0995029  -4.4660504
  47.9039868  33.3991236  -2.8736459  48.0760371  33.2897131  -2.0251178
  48.4409225  34.0445642  -3.1105267  48.0084872  33.4783238  -2.7831362
  53.8414569  41.3195487  -0.9227383  54.6254986  41.4326335  -0.5571641
  53.6411164  40.4936624  -0.7268697  53.9280595  41.2142207  -0.8392997
  45.6840750  33.4966950  -4.2489686  46.4080722  33.4819980  -3.7624791
  45.7856886  34.2062305  -4.7467718  45.8058959  33.5991653  -4.2510899
  53.0585699  36.9766034   0.6159261  52.2658680  37.2909546   0.8011881
  53.1734627  37.1917503  -0.2219955  52.9581110  37.0549871   0.5197596
  53.9869492  36.8786238  -4.4455442  54.5608354  36.2413482  -4.2906879
  53.9084296  36.8790321  -5.3145785  54.0602727  36.7851350  -4.5509032
  49.7659414  27.5399442   0.3309621  49.4512855  28.3099005   0.0679184
  49.4449346  26.9769698  -0.2538152  49.6718333  27.5709711   0.2050971
  50.4708861  37.2815649  -6.2267463  49.9720555  37.9931416  -6.1482574
  51.2809085  37.6016315  -6.2649300  50.5164968  37.4342497  -6.2210894
  49.3975919  30.1396693  -0.9305164  48.5875695  30.4454473  -1.0415322
  49.8750606  30.8602275  -0.8152580  49.3479398  30.2911294  -0.9298093
  45.7319951  35.6759243  -6.0605762  46.2441048  35.9543497  -6.7097002
  45.4456293  36.4148537  -5.6942949  45.7654814  35.8261597  -6.1015884
  56.0215316  35.1423438  -3.8367253  56.0163354  34.2703255  -3.8324826
  56.7276309  35.3411608  -4.3097797  56.1260320  35.0427313  -3.9060217
  49.7486209  34.8700422  -4.4653433  49.8929585  35.4501630  -5.1010323
  50.0961857  35.2476719  -3.7603578  49.8213670  35.0121126  -4.4554438
  51.9206126  34.0690591  -6.6828301  51.1729440  34.2621605  -7.0880023
  52.0747652  33.2435810  -6.9204180  51.8328554  33.9755702  -6.7782895
  52.5528112  32.4303504  -4.4667574  52.4887253  33.2913461  -4.5947438
  52.6925299  32.1135498  -5.2672023  52.5643582  32.5103671  -4.6039362
  56.9325902  39.2048226   1.0896876  57.7460768  38.9333375   1.2502009
  56.7720869  38.9055766   0.2857072  57.0295851  39.1203152   0.9942282
  54.2098064  29.8881883  -5.9707735  54.4240034  29.2492797  -6.5244381
  53.5931964  30.3327707  -6.3999874  54.1503394  29.8592027  -6.1157304
  56.3737152  31.4970948  -5.0324428  55.5613834  31.1896839  -4.9511255
  56.8327087  31.0169949  -4.4681716  56.3217537  31.3807441  -4.9369834
  53.4690660  32.9031020  -0.2495726  53.9390291  33.5273136   0.1372148
  53.5152540  32.2347995   0.3097489  53.5458536  32.8965700  -0.1095654
  52.1625224  27.2219188  -3.1317398  52.9898653  26.9504336  -3.0758784
  52.1833070  28.0180029  -2.7753580  52.2878074  27.2998942  -3.0702215
  48.6129729  39.5114170  -5.9877442  48.5050084  39.5216232  -5.1215384
  48.8225511  40.3368951  -6.1772488  48.6279840  39.6355245  -5.8873350
  48.6747494  28.5895505  -3.2915460  48.2833059  27.9428852  -2.8559682
  48.8433357  29.1806941  -2.6721204  48.6418404  28.5809773  -3.1352754
  50.1198571  36.1188738  -1.9770345  49.2694201  36.2560452  -1.8412700
  50.2826699  35.3852516  -1.5322643  50.0182434  36.0302839  -1.8914746
  55.9262688  31.6763158  -7.8969324  55.9060615  31.4946453  -7.0434545
  55.9741889  32.5475177  -7.9209740  55.9297329  31.7779696  -7.7746029
  53.8709018  38.2650350  -1.9720847  53.8304873  37.6200027  -2.5575691
  54.6832336  38.2086968  -1.6595435  53.9852171  38.1609317  -2.0123898
  49.5586727  31.8947287  -5.4171090  49.0465630  31.2868470  -5.0586058
  49.3866223  32.6103879  -4.9497114  49.4576364  31.9110586  -5.2954866
  44.4052441  30.3384862  -2.7668728  44.2355032  30.9986237  -3.3120521
  43.9618391  30.5491423  -2.0456239  44.3151775  30.4670844  -2.7407098
  53.4355797  29.8171531  -2.9768834  53.9927227  29.5885341  -3.6090369
  53.1116862  30.5777197  -3.2533622  53.4702207  29.8955368  -3.1112337
  51.1538914  32.9039185  -2.0116827  51.9050241  33.2190862  -1.6977273
  51.3461491  32.7018356  -2.8382905  51.2930328  32.9206567  -2.0873431
  56.4672459  41.7849518   0.0813534  56.5769425  40.9958079   0.4370281
  56.7963356  41.6955454  -0.7212128  56.5324865  41.6555371   0.0155924
   1.4945413  57.0309003  29.8771270   1.4269913  57.0504962  29.0073856
   1.4801075  57.8739330  30.1026940   1.4824169  57.1582738  29.7823746
   6.5158958  70.9858401  23.0846592   6.4852962  71.8403038  23.2564861
   7.1140307  70.6853694  23.6432735   6.5996116  71.0674898  23.1921394
   3.6510837  60.9098641  25.0539516   3.3364278  61.6002119  25.4859938
   3.1337779  60.8543423  24.3525017   3.5275308  61.0033529  25.0136465
   7.9425282  69.1319847  30.3360392   7.1053703  69.2022034  30.5707987
   7.9113513  69.1344341  29.4634695   7.8143565  69.1430074  30.2419940
   5.6233122  64.1962628  28.9204115   6.2659030  64.2660733  29.5066030
   5.8756143  63.5291851  28.4183657   5.7555254  64.1088977  28.9331394
   8.0614624  68.9707265  24.6516078   7.8051189  68.1587207  24.4613961
   8.9043938  68.9784833  24.4246266   8.1480650  68.8519263  24.5900895
   2.2417717  62.9106890  29.3892232   2.6228228  62.2285061  29.7760107
   1.4381001  62.6216492  29.2067897   2.1794178  62.7673938  29.4196288
  12.4677996  72.5494311  29.8771270  12.4002497  72.5690270  29.0073856
  12.4533659  73.3924638  30.1026940  12.4556753  72.6768046  29.7823746
   2.8774343  63.9529469  33.2012359   3.6227935  63.7639279  32.7875784
   2.4611647  64.4787707  32.6426215   2.9259317  64.0031614  33.0576932
  10.2536614  71.3238697  28.1517864  10.8044535  70.6906766  28.3914956
  10.2380729  71.8554090  28.8433368  10.3321810  71.3087645  28.2896722
   3.9565020  69.5635031  27.2622460   3.6129786  68.8425366  27.6129710
   4.0558062  69.3548882  26.4200818   3.9207063  69.4259234  27.1894140
   2.4755985  67.4826616  29.1382003   1.6367086  67.5087894  28.9020266
   2.5460353  68.1297351  29.7187350   2.3624379  67.5822741  29.1891120
   0.9225264  64.3811993  23.8709619   1.6251616  64.1819741  23.3929577
   0.6569452  63.6087935  24.1778462   0.9871896  64.2374959  23.8455061
   3.0685373  59.0192662  27.0006166   3.1868941  59.4769126  26.2673468
   2.8947549  58.2137924  26.7142383   3.0604544  58.9686434  26.8507099
   2.8087296  69.3732594  33.8920792   1.9963978  69.0658485  33.9733965
   3.2677231  68.8931594  34.4563504   2.7567681  69.2569087  33.9875386
   5.1054290  69.9905308  29.8530853   4.6781898  69.9031657  29.0978952
   4.4680343  70.0983084  30.4385697   4.9483897  69.9937968  29.8276294
   2.2885371  62.8445527  26.4886712   2.4934964  62.7767835  27.3343709
   1.9611795  63.6504348  26.4207890   2.2700619  62.9531468  26.6046367
   5.5419058  63.3977291  25.9689478   4.9293372  63.8847694  26.3543210
   5.6383233  62.7220782  26.5127129   5.4656956  63.3695600  26.1068336
   6.1365766  72.4910516  29.4832684   5.8963989  71.6516931  29.4875111
   6.6157773  72.5710683  30.2073458   6.1717950  72.3791916  29.5907486
   8.1370953  69.2711973  27.4361943   7.8980723  69.2307807  26.5982728
   8.3004854  70.1183125  27.5627664   8.1261256  69.3904058  27.3315425
   1.1707869  65.4059025  31.3380095   1.5962941  64.9531552  30.7263621
   0.5564862  64.8519096  31.6144883   1.1436514  65.2573001  31.2885120
   4.2001438  69.8333552  24.1700681   3.5292628  70.3763254  24.0413746
   4.8941189  70.3028407  23.9282375   4.2030306  69.9831823  24.1156208
   4.3629566  66.2889435  27.0791054   4.7157176  65.8619158  27.7536853
   3.5044367  66.2040279  27.2092130   4.2879010  66.2134176  27.1986064
   2.3612832  69.5524804  31.0275896   2.3410759  69.3708099  31.8810675
   2.4092032  70.4236823  31.0035480   2.3647473  69.6541342  31.1499191
   5.7953626  61.4107847  28.0075366   5.2884491  60.7036987  27.9396544
   6.5921060  61.0801036  28.1376443   5.8380865  61.2580999  28.0174361
   1.7117642  67.9174460  23.9049030   1.4831335  67.9407161  23.0627388
   1.9715718  67.0931927  24.0244041   1.7163830  67.7990539  23.7974228
   4.4374348  66.9074397  24.1552188   4.4368574  66.7523053  25.0136465
   4.2330528  67.7537384  24.0993574   4.4074126  67.0095018  24.2740128
   4.2613429  65.9113139  30.9745566   3.6776418  66.4122346  30.5623134
   4.5817723  65.4042695  30.3409890   4.2226604  65.9104974  30.8204074
  14.0417956  74.5377970  27.0006166  14.1601525  74.9954434  26.2673468
  13.8680132  73.7323231  26.7142383  14.0337127  74.4871742  26.8507099
   1.1896237  33.9687134  16.8111316   1.1220737  33.9883093  15.9413903
   1.1751899  34.8117461  17.0366987   1.1774993  34.0960869  16.7163793
   6.2109782  47.9236532  10.0186638   6.1803786  48.7781169  10.1904908
   6.8091130  47.6231825  10.5772782   6.2946940  48.0053029  10.1261441
   2.7203183  53.2798709  24.3800025   3.4269950  52.7850740  24.5086959
   2.9091119  53.7207790  23.6502683   2.8531089  53.2717059  24.2909071
   2.2561288  49.0704227  17.4171221   2.8017248  49.7489314  17.4765190
   2.1978164  48.9291688  16.5572802   2.3277202  49.1496229  17.2983281
   3.3461661  37.8476772  11.9879563   3.0315102  38.5380250  12.4199985
   2.8288603  37.7921554  11.2865063   3.2226132  37.9411660  11.9476512
   8.1422148  53.4227577  13.4750018   7.3119851  53.6338221  13.6383434
   8.0931400  52.5964632  13.1992301   8.0128883  53.3317183  13.4587383
   7.6376106  46.0697978  17.2700439   6.8004527  46.1400165  17.5048034
   7.6064337  46.0722473  16.3974741   7.5094389  46.0808205  17.1759987
   2.3606292  50.2653654  12.8612331   3.1163807  50.6985169  12.9001239
   2.4668616  49.6158424  13.4346967   2.4876463  50.2331138  12.9510356
   5.3986463  54.0926932  13.6114734   4.9621695  54.0963674  14.3673705
   5.0649379  54.7732431  13.1794311   5.2849083  54.1939387  13.6595566
   5.3183946  41.1340759  15.8544161   5.9609854  41.2038864  16.4406077
   5.5706967  40.4669982  15.3523703   5.4506078  41.0467108  15.8671441
   8.5330809  50.8107851  12.5034371   9.1947243  50.2498520  12.4030279
   7.8922221  50.3159882  12.8287062   8.5359677  50.6544260  12.5366711
   4.8195640  51.8273234  12.2446360   5.0551229  51.9718433  11.4173210
   4.9685204  52.5915642  12.6377873   4.8761443  51.9612288  12.1809963
   6.6486097  50.6674900  10.0815963   6.9794314  51.2002540   9.4756058
   7.2219185  50.7213788  10.7377914   6.7819776  50.7544469  10.0893745
   7.7565448  45.9085397  11.5856125   7.5002013  45.0965338  11.3954008
   8.5994762  45.9162964  11.3586312   7.8431474  45.7897394  11.5240942
   1.9368541  39.8485021  16.3232279   2.3179052  39.1663192  16.7100153
   1.1331825  39.5594623  16.1407944   1.8745002  39.7052069  16.3536335
   5.4390608  53.0634993  21.4214678   5.2029245  52.2323058  21.3026738
   6.0833836  53.0120600  22.0069522   5.4985278  52.9332681  21.4900571
   6.4627028  52.8479441  17.4842972   6.1572845  53.5807498  17.8456288
   5.7433244  52.4417371  17.2035758   6.3114370  52.8961174  17.4956109
  12.1628820  49.4872442  16.8111316  12.0953321  49.5068401  15.9413903
  12.1484483  50.3302769  17.0366987  12.1507577  49.6146177  16.7163793
   2.5725167  40.8907600  20.1352406   3.3178759  40.7017410  19.7215831
   2.1562471  41.4165838  19.5766262   2.6210141  40.9409745  19.9916979
   9.9487438  48.2616828  15.0857911  10.4995359  47.6284897  15.3255003
   9.9331553  48.7932221  15.7773415  10.0272634  48.2465776  15.2236769
   3.6515844  46.5013162  14.1962507   3.3080610  45.7803497  14.5469757
   3.7508886  46.2927013  13.3540865   3.6157887  46.3637365  14.1234187
   2.1706809  44.4204747  16.0722050   1.3317910  44.4466026  15.8360313
   2.2411177  45.0675482  16.6527396   2.0575203  44.5200873  16.1231167
   6.0464333  49.6272734  13.3583292   5.9598308  49.7828160  14.2118070
   5.5914813  50.2710809  12.9842697   5.9667590  49.7448489  13.4290398
   3.8138198  53.6566840  15.7695632   3.6752557  54.3547886  16.2744375
   3.0338196  53.5015496  15.4131814   3.6781425  53.7367007  15.7921907
   2.1516283  49.9563215  22.0218014   2.1464322  49.0843032  22.0260441
   2.8577277  50.1551384  21.5487470   2.2561287  49.8567090  21.9525049
   2.7636197  35.9570794  13.9346212   2.8819765  36.4147257  13.2013515
   2.5898372  35.1516055  13.6482430   2.7555368  35.9064566  13.7847146
   1.5534935  52.4025452  14.6353639   0.8779937  52.1710685  15.1367026
   1.5627311  51.7946635  14.0095744   1.4553440  52.2784378  14.6169792
   3.0626870  54.0188003  26.9482143   3.8761735  53.7473152  27.1087276
   2.9021836  53.7195543  26.1442339   3.1596818  53.9342929  26.8527549
   2.5038120  46.3110725  20.8260839   1.6914802  46.0036616  20.9074011
   2.9628054  45.8309726  21.3903551   2.4518505  46.1947218  20.9215433
   3.0748114  55.0794293  22.2204984   3.7127834  54.5854489  21.8867440
   2.4322205  55.0071694  21.6357211   3.0742340  54.9953302  22.0847339
   4.8005114  46.9283439  16.7870899   4.3732722  46.8409788  16.0318999
   4.1631167  47.0361215  17.3725744   4.6434721  46.9316099  16.7616341
   3.1302371  55.7714102  18.8610341   3.9194749  55.4203166  18.9812422
   3.3045968  56.5850490  18.5986974   3.2722652  55.8399959  18.8398209
   1.9836195  39.7823658  13.4226759   2.1885788  39.7145966  14.2683756
   1.6562619  40.5882480  13.3547936   1.9651443  39.8909599  13.5386414
   5.2369882  40.3355423  12.9029524   4.6244196  40.8225825  13.2883256
   5.3334057  39.6598913  13.4467176   5.1607780  40.3073731  13.0408383
   8.8794910  51.4072359  18.3307041   8.9378034  51.8559008  19.0767017
   8.2461378  51.8171172  17.8937121   8.7946205  51.5346094  18.3759589
   5.8316590  49.4288647  16.4172731   5.5914813  48.5895062  16.4215157
   6.3108597  49.5088814  17.1413504   5.8668773  49.3170047  16.5247533
   7.8321777  46.2090104  14.3701990   7.5931547  46.1685938  13.5322775
   7.9955678  47.0561256  14.4967711   7.8212080  46.3282189  14.2655472
   4.4367807  50.5940054  20.3007035   5.1602006  50.1412580  20.1218055
   4.1717769  50.8744719  19.5179363   4.5049080  50.5691022  20.1585751
   6.8703121  49.5566464  18.8037585   7.4620961  50.1963715  18.8355783
   7.3062115  48.8589501  19.0929652   7.0221552  49.5484815  18.8518418
   3.8952262  46.7711683  11.1040727   3.2243452  47.3141385  10.9753793
   4.5892013  47.2406538  10.8622422   3.8981130  46.9209954  11.0496255
   4.0580390  43.2267567  14.0131101   4.4108000  42.7997290  14.6876899
   3.1995191  43.1418410  14.1432177   3.9829834  43.1512307  14.1326111
   2.0563656  46.4902935  17.9615943   2.0361583  46.3086230  18.8150722
   2.1042856  47.3614954  17.9375527   2.0598297  46.5919473  18.0839238
   5.4904450  38.3485978  14.9415413   4.9835315  37.6415118  14.8736591
   6.2871884  38.0179167  15.0716490   5.5331689  38.1959130  14.9514408
   1.4068466  44.8552591  10.8389077   1.1782159  44.8785292   9.9967435
   1.6666542  44.0310058  10.9584087   1.4114654  44.7368671  10.7314275
   4.1325172  43.8452528  11.0892235   4.1319398  43.6901185  11.9476512
   3.9281352  44.6915515  11.0333621   4.1024950  43.9473149  11.2080175
   1.8566024  48.5250030  14.7428442   2.3519689  47.8073025  14.7032462
   1.0465800  48.2220827  14.6282929   1.8109917  48.3747676  14.7202168
   3.9217843  51.2753717  17.4305571   4.3472914  50.7528139  16.8775996
   3.5574763  51.8734555  16.9094194   3.9304445  51.2863944  17.2714581
   2.5973427  56.5989295  25.9398800   2.7070392  55.8097856  26.2955548
   2.9264323  56.5095231  25.1373138   2.6625833  56.4695148  25.8741191
   1.1470389  54.7805916  20.5234421   0.5991335  54.1563799  20.2554486
   1.6083417  54.9700188  19.8078500   1.1337598  54.7164966  20.3784852
   3.9564253  42.8491270  17.9085613   3.3727242  43.3500477  17.4963181
   4.2768547  42.3420826  17.2749937   3.9177428  42.8483105  17.7544120
  17.1842365  63.4421840  10.0186638  17.1536370  64.2966477  10.1904908
  17.7823714  63.1417133  10.5772782  17.2679523  63.5238337  10.1261441
  10.3842050  62.5297491  14.7739569   9.5279946  62.6905989  14.8248686
  10.4309704  61.6589555  14.7944630  10.2641162  62.4248293  14.7845635
  13.6935767  68.7984017  24.3800025  14.4002534  68.3036047  24.5086959
  13.8823702  69.2393098  23.6502683  13.8263672  68.7902367  24.2909071
  13.2293871  64.5889535  17.4171221  13.7749831  65.2674622  17.4765190
  13.1710747  64.4476996  16.5572802  13.3009785  64.6681537  17.2983281
   7.1117837  57.3776557  13.7429952   6.7821167  57.8287700  13.0733651
   6.4362839  57.2992720  14.2902959   6.9628273  57.4327692  13.7253175
  14.3194245  53.3662080  11.9879563  14.0047686  54.0565558  12.4199985
  13.8021186  53.3106862  11.2865063  14.1958715  53.4596968  11.9476512
  19.1154731  68.9412885  13.4750018  18.2852435  69.1523529  13.6383434
  19.0663984  68.1149940  13.1992301  18.9861467  68.8502491  13.4587383
  10.8328061  72.2211553  22.2714100  10.9211407  72.0337694  23.1192311
  11.2617774  71.5748983  21.8718947  10.9090163  72.0974561  22.3385852
   8.3998521  71.5042713  21.2531762   7.8369356  71.0915323  21.7771424
   9.1619544  71.4295619  21.6724906   8.4292969  71.4320114  21.3924763
  18.6108690  61.5883286  17.2700439  17.7737111  61.6585473  17.5048034
  18.5796921  61.5907781  16.3974741  18.4826972  61.5993513  17.1759987
   5.0073419  63.7316321  22.9848808   5.1793923  63.6222216  23.8334089
   5.5442776  64.3770727  22.7480000   5.1118423  63.8108323  23.0753904
   9.3530575  54.8485575   8.9580037  10.0816735  54.6701530   8.5118193
   9.4425468  55.6903655   9.1687215   9.4737237  54.9469453   8.9233554
  13.3338876  65.7838962  12.8612331  14.0896391  66.2170477  12.9001239
  13.4401200  65.1343732  13.4346967  13.4609046  65.7516446  12.9510356
  16.3719047  69.6112240  13.6114734  15.9354279  69.6148982  14.3673705
  16.0381962  70.2917738  13.1794311  16.2581667  69.7124695  13.6595566
  10.9448120  71.6520572  24.9357884  11.7288537  71.7651420  25.3013626
  10.7444715  70.8261709  25.1316570  11.0314146  71.5467292  25.0192270
  16.2916530  56.6526067  15.8544161  16.9342438  56.7224172  16.4406077
  16.5439550  55.9855290  15.3523703  16.4238662  56.5652416  15.8671441
   4.0633742  59.8626631  20.4668735   3.3705539  59.3923610  20.7129467
   4.6794069  59.6364935  21.0410443   4.0518272  59.7593763  20.5877888
  11.1018514  73.5630674  18.5824339  10.3033759  73.3230174  18.8398208
  11.5504525  73.6145067  19.3291387  11.0493125  73.5353066  18.7309264
  19.5063393  66.3293159  12.5034371  20.1679827  65.7683828  12.4030279
  18.8654805  65.8345190  12.8287062  19.5092260  66.1729568  12.5366711
  15.7928224  67.3458542  12.2446360  16.0283813  67.4903741  11.4173210
  15.9417787  68.1100950  12.6377873  15.8494027  67.4797596  12.1809963
  17.6218680  66.1860208  10.0815963  17.9526897  66.7187848   9.4756058
  18.1951768  66.2399095  10.7377914  17.7552359  66.2729777  10.0893745
  10.1619250  67.3091119  26.4744528   9.3692231  67.6234631  26.6597147
  10.2768178  67.5242588  25.6365312  10.0614661  67.3874956  26.3782862
  11.0903043  67.2111323  21.4129824  11.6641905  66.5738567  21.5678388
  11.0117847  67.2115405  20.5439482  11.1636278  67.1176434  21.3076235
  11.5267812  57.7463039  13.5655114  10.8224139  57.2572224  13.7239034
  11.5752786  57.7585513  12.6943559  11.4297864  57.6752687  13.4594454
   9.0874763  61.6695700  18.8108295   8.6989195  61.2449918  18.1560486
   8.4229461  61.9177850  19.3185322   8.9321690  61.6434421  18.7896163
  18.7298032  61.4270705  11.5856125  18.4734597  60.6150646  11.3954008
  19.5727346  61.4348272  11.3586312  18.8164057  61.3082702  11.5240942
  12.9101124  55.3670329  16.3232279  13.2911636  54.6848500  16.7100153
  12.1064409  55.0779931  16.1407944  12.8477586  55.2237377  16.3536335
  16.4123191  68.5820301  21.4214678  16.1761829  67.7508365  21.3026738
  17.0566420  68.5305908  22.0069522  16.4717862  68.4517989  21.4900571
   6.8692965  57.8724527  26.1894888   6.5546406  58.6424090  25.9264450
   6.5482897  57.3094783  25.6047115   6.7751884  57.9034796  26.0636238
  17.4359612  68.3664749  17.4842972  17.1305429  69.0992806  17.8456288
  16.7165827  67.9602679  17.2035758  17.2846954  68.4146482  17.4956109
  23.1361404  65.0057750  16.8111316  23.0685904  65.0253709  15.9413903
  23.1217066  65.8488077  17.0366987  23.1240160  65.1331485  16.7163793
  13.5457750  56.4092908  20.1352406  14.2911342  56.2202718  19.7215831
  13.1295055  56.9351146  19.5766262  13.5942725  56.4595053  19.9916979
  20.9220021  63.7802136  15.0857911  21.4727943  63.1470205  15.3255003
  20.9064137  64.3117529  15.7773415  21.0005218  63.7651084  15.2236769
   7.5742412  67.6140734  19.6317804   7.0754106  68.3256501  19.7102693
   8.3842636  67.9341400  19.5935967   7.6198519  67.7667582  19.6374373
  14.6248427  62.0198470  14.1962507  14.2813193  61.2988805  14.5469757
  14.7241470  61.8112321  13.3540865  14.5890470  61.8822673  14.1234187
   6.5009470  60.4721778  24.9280102   5.6909246  60.7779558  24.8169945
   6.9784157  61.1927360  25.0432687   6.4512949  60.6236379  24.9287174
  13.1439393  59.9390055  16.0722050  12.3050493  59.9651334  15.8360313
  13.2143760  60.5860790  16.6527396  13.0307786  60.0386181  16.1231167
  11.5908671  56.8375432  10.8049666  12.2935024  56.6383180  10.3269624
  11.3252860  56.0651374  11.1118509  11.6555303  56.6938398  10.7795107
  17.0196917  65.1458041  13.3583292  16.9330891  65.3013468  14.2118070
  16.5647397  65.7896117  12.9842697  16.9400173  65.2633797  13.4290398
   6.3537227  58.1010717  19.8580546   6.1620424  58.1165851  20.7079970
   7.2035823  58.2974391  19.8347201   6.4512949  58.1325068  19.9803841
  10.8922733  62.4668789  11.9808851  10.6457447  62.3864539  12.8145640
  11.2207856  61.6822256  11.7871379  10.9043976  62.3395054  12.0756374
  14.7870782  69.1752148  15.7695632  14.6485141  69.8733194  16.2744375
  14.0070779  69.0200804  15.4131814  14.6514008  69.2552315  15.7921907
  13.1248867  65.4748523  22.0218014  13.1196905  64.6028340  22.0260441
  13.8309861  65.6736692  21.5487470  13.2293871  65.3752397  21.9525049
   6.8519760  65.2025507  21.3931834   6.9963136  65.7826715  20.7574944
   7.1995409  65.5801804  22.0981689   6.9247221  65.3446211  21.4030829
   9.0239677  64.4015676  19.1756966   8.2762991  64.5946690  18.7705244
   9.1781203  63.5760895  18.9381087   8.9362105  64.3080787  19.0802372
   9.2641454  58.2966226  20.0652370   9.7214069  59.0290201  20.1925162
   9.3397783  57.8732692  20.8239625   9.3432424  58.3423464  20.1953446
   1.5074446  58.5432046  21.1541813   0.9716635  57.9312404  21.4702581
   1.5692210  59.1180182  21.8075480   1.4370078  58.5378974  21.2977240
  13.7368780  51.4756101  13.9346212  13.8552348  51.9332565  13.2013515
  13.5630956  50.6701363  13.6482430  13.7287951  51.4249874  13.7847146
   7.1423832  60.2868330  16.9094194   6.3519907  60.1059790  17.2311529
   7.5384455  59.5095283  16.8924488   7.0840709  60.1455791  16.9546742
  12.5267519  67.9210760  14.6353639  11.8512520  67.6895993  15.1367026
  12.5359895  67.3131943  14.0095744  12.4286023  67.7969686  14.6169792
   9.6561663  62.7628589  21.3917692   9.5920804  63.6238546  21.2637829
   9.7958850  62.4460583  20.5913244   9.6677133  62.8428756  21.2545905
  14.0359454  69.5373311  26.9482143  14.8494319  69.2658460  27.1087276
  13.8754420  69.2380851  26.1442339  14.1329402  69.4528237  26.8527549
  11.3131615  60.2206968  19.8877532  11.5273585  59.5817882  19.3340886
  10.6965515  60.6652792  19.4585393  11.2536945  60.1917112  19.7427963
  13.4770703  61.8296033  20.8260839  12.6647385  61.5221924  20.9074011
  13.9360638  61.3495033  21.3903551  13.4251088  61.7132526  20.9215433
  10.7046344  53.3306904  14.8764874   9.8339902  53.3045625  14.8298184
  10.9586685  53.1584096  14.0590720  10.6139904  53.3017048  14.7485011
  10.5724211  63.2356105  25.6089541  11.0423842  63.8598221  25.9957415
  10.6186091  62.5673080  26.1682756  10.6492087  63.2290785  25.7489612
   7.7295485  55.3413132  16.3338345   7.2133973  54.6493324  16.4589924
   7.1689413  56.0083909  16.2800943   7.5701998  55.3376390  16.3444411
   9.7987718  55.8806092  18.1631197   9.4119471  55.9055124  18.9444727
   9.3120655  55.3147771  17.7105714   9.6700227  55.8001843  18.2119101
  14.0480698  70.5979601  22.2204984  14.6860418  70.1039797  21.8867440
  13.4054789  70.5257002  21.6357211  14.0474924  70.5138610  22.0847339
  15.7737698  62.4468747  16.7870899  15.3465306  62.3595096  16.0318999
  15.1363751  62.5546523  17.3725744  15.6167305  62.4501407  16.7616341
   9.4644860  52.7673078  20.4541457  10.0937978  53.3033378  20.1762528
   9.6330723  52.6750437  21.3055023   9.5822654  52.8334440  20.5389985
   9.2658775  57.5544272  22.7267869  10.0932204  57.2829421  22.7826483
   9.2866621  58.3505114  23.0831687   9.3911625  57.6324027  22.7883052
  14.1034954  71.2899410  18.8610341  14.8927332  70.9388474  18.9812422
  14.2778552  72.1035798  18.5986974  14.2455236  71.3585267  18.8398209
  12.9568778  55.3008966  13.4226759  13.1618372  55.2331274  14.2683756
  12.6295202  56.1067787  13.3547936  12.9384026  55.4094907  13.5386414
  16.2102466  55.8540731  12.9029524  15.5976780  56.3411133  13.2883256
  16.3066641  55.1784221  13.4467176  16.1340364  55.8259039  13.0408383
   4.1297695  58.2553895  17.9997780   4.5899177  58.3292825  18.7372904
   4.1753802  59.0535149  17.6497601   4.2048251  58.3848042  18.0570536
   5.7781045  58.9220590  22.5669807   5.3866610  58.2753937  23.0025585
   5.9466908  59.5132026  23.1864062   5.7451955  58.9134858  22.7232513
  19.8527494  66.9257667  18.3307041  19.9110618  67.3744316  19.0767017
  19.2193962  67.3356480  17.8937121  19.7678789  67.0531402  18.3759589
   9.4714142  56.1096365  14.1403893   8.6250188  56.2819173  14.0145242
   9.4685275  55.3045709  14.4769721   9.3461292  56.0157394  14.1715019
  10.5412443  59.8871579  15.0065950  10.0672397  59.3613341  15.5171261
  10.9130579  59.3401052  14.4380812  10.5262332  59.7287576  14.9981098
   0.9185473  61.8843086  20.3749496   1.7811086  61.7838795  20.2886826
   0.5877256  61.3037795  19.8135068   0.9970669  61.7834713  20.2794902
  16.8049173  64.9473955  16.4172731  16.5647396  64.1080370  16.4215157
  17.2841181  65.0274122  17.1413504  16.8401357  64.8355355  16.5247533
  18.8054360  61.7275412  14.3701990  18.5664130  61.6871246  13.5322775
  18.9688262  62.5746564  14.4967711  18.7944664  61.8467497  14.2655472
  15.4100391  66.1125361  20.3007035  16.1334589  65.6597888  20.1218055
  15.1450353  66.3930027  19.5179363  15.4781664  66.0876330  20.1585751
  11.1919180  66.2109240  18.4502050  10.5776173  65.6667290  18.7450686
  11.7086465  65.6973476  17.9707866  11.1774842  66.0545649  18.4226279
  10.4315477  67.2813510  16.1846349  10.0043085  66.6563228  15.7511784
  10.4240422  66.9988432  17.0105356  10.3674618  67.1466290  16.2426176
   3.5478004  62.3178683  19.2534783   3.7071491  61.5622007  19.6586505
   3.3670898  62.8669622  19.9075521   3.5443363  62.2872497  19.4097489
  11.4898307  54.4839918  19.8085572  10.9938869  54.6803593  19.1177139
  12.2467369  54.8832587  19.6374374  11.5285132  54.5717652  19.6805709
   8.7601187  58.1582264  16.3988883   8.7843674  57.6242377  15.7101663
   9.0112661  57.6499573  17.0614473   8.8011106  58.0043168  16.3953528
   5.0402509  56.8853083  15.7794627   5.0800881  57.3862289  16.4929335
   4.2152174  56.9763476  15.5100550   4.9242035  56.9734899  15.8445165
   7.2232122  66.4513823  23.8814922   6.3727753  66.5885537  24.0172567
   7.3860250  65.7177601  24.3262623   7.1215986  66.3627924  23.9670521
   6.4616873  63.4013592  18.0768526   5.6308802  63.5687410  17.8703774
   6.4068390  63.0249543  18.8617412   6.3306287  63.3703324  18.1617054
   4.2700656  56.8922485  23.7124937   4.8953359  56.3484618  23.9854369
   3.8151136  56.4117403  23.1432727   4.2948916  56.7411967  23.6686531
  17.8435705  65.0751772  18.8037585  18.4353545  65.7149023  18.8355783
  18.2794699  64.3774809  19.0929652  17.9954136  65.0670123  18.8518418
   9.6729094  69.4969145  19.4295479   9.1654185  70.0504992  19.8736109
   9.3755741  69.5577435  18.6114253   9.5533979  69.5875456  19.3743936
  11.8391277  57.8622464  18.2720142  12.2646348  57.4094991  17.6603668
  11.2248270  57.3082535  18.5484929  11.8119922  57.7136441  18.2225167
  10.2785499  54.3337564  11.6810719   9.6353817  54.1835210  12.2495857
   9.9384906  54.0879909  10.9159823  10.1330577  54.2749687  11.6513734
  14.8684846  62.2896991  11.1040727  14.1976036  62.8326693  10.9753793
  15.5624596  62.7591846  10.8622422  14.8713713  62.4395262  11.0496255
  15.0312973  58.7452875  14.0131101  15.3840583  58.3182597  14.6876899
  14.1727775  58.6603718  14.1432177  14.9562418  58.6697615  14.1326111
  13.0296239  62.0088243  17.9615943  13.0094166  61.8271538  18.8150722
  13.0775440  62.8800262  17.9375527  13.0330880  62.1104781  18.0839238
  10.9742569  68.5975435  23.8864419  10.9338424  67.9525112  23.3009575
  11.7865887  68.5412053  24.1989832  11.0885723  68.4934402  23.8461369
  16.4637033  53.8671286  14.9415413  15.9567898  53.1600426  14.8736591
  17.2604467  53.5364475  15.0716490  16.5064273  53.7144438  14.9514408
  12.3801049  60.3737899  10.8389077  12.1514742  60.3970600   9.9967435
  12.6399126  59.5495366  10.9584087  12.3847237  60.2553979  10.7314275
   6.6620278  62.2272372  20.4414177   6.1499181  61.6193555  20.7999208
   6.4899774  62.9428964  20.9088153   6.5609915  62.2435671  20.5630401
   1.5085992  60.6709947  23.0916539   1.3388583  61.3311322  22.5464746
   1.0651942  60.8816508  23.8129028   1.4185326  60.7995929  23.1178168
  10.5389348  60.1496616  22.8816433  11.0960778  59.9210426  22.2494898
  10.2150413  60.9102282  22.6051645  10.5735758  60.2280453  22.7472930
   8.2572465  63.2364270  23.8468440   9.0083792  63.5515946  24.1607994
   8.4495042  63.0343441  23.0202362   8.3963880  63.2531651  23.7711836
  15.1057755  59.3637836  11.0892235  15.1051982  59.2086493  11.9476512
  14.9013936  60.2100823  11.0333621  15.0757533  59.4658457  11.2080175
  12.8298608  64.0435338  14.7428442  13.3252273  63.3258333  14.7032462
  12.0198383  63.7406135  14.6282929  12.7842501  63.8932984  14.7202168
  14.8950426  66.7939025  17.4305571  15.3205498  66.2713447  16.8775996
  14.5307346  67.3919863  16.9094194  14.9037029  66.8049252  17.2714581
  13.5706010  72.1174603  25.9398800  13.6802976  71.3283163  26.2955548
  13.8996907  72.0280539  25.1373138  13.6358416  71.9880456  25.8741191
   8.3998521  55.2800760  20.7164823   8.5326426  54.4831753  21.0445799
   8.7843674  55.8067163  21.2963099   8.4754850  55.2400677  20.8508326
  12.1202972  70.2991224  20.5234421  11.5723918  69.6749107  20.2554486
  12.5816001  70.4885496  19.8078500  12.1070182  70.2350274  20.3784852
  11.4730876  52.2031086  17.3145916  10.6676840  52.0928816  17.6313755
  11.3437611  52.3043542  16.4575782  11.3351009  52.2014756  17.2353957
  14.9296837  58.3676578  17.9085613  14.3459825  58.8685785  17.4963181
  15.2501131  57.8606134  17.2749937  14.8910012  58.3668413  17.7544120
   6.0586968  55.2759935  18.9642717   6.6031381  54.9351062  19.5547059
   6.1123903  56.1345397  19.1064001   6.1476087  55.3515194  19.0724590
  11.6861298  71.3042296  17.0543762  12.5059672  71.1605262  17.3160057
  11.4055376  71.9288495  17.5960200  11.7658042  71.3752648  17.1731702
  28.1574949  78.9607148  10.0186638  28.1268953  79.8151785  10.1904908
  28.7556298  78.6602441  10.5772782  28.2412107  79.0423645  10.1261441
  18.0850421  72.8961865  13.7429952  17.7553751  73.3473008  13.0733651
  17.4095422  72.8178028  14.2902959  17.9360857  72.9513000  13.7253175
  25.2926828  68.8847388  11.9879563  24.9780269  69.5750866  12.4199985
  24.7753770  68.8292170  11.2865063  25.1691299  68.9782276  11.9476512
  29.5841273  77.1068594  17.2700439  28.7469694  77.1770781  17.5048034
  29.5529504  77.1093088  16.3974741  29.4559556  77.1178821  17.1759987
  20.3263158  70.3670883   8.9580037  21.0549319  70.1886838   8.5118193
  20.4158051  71.2088963   9.1687215  20.4469821  70.4654761   8.9233554
  27.2649113  72.1711375  15.8544161  27.9075022  72.2409480  16.4406077
  27.5172134  71.5040598  15.3523703  27.3971245  72.0837724  15.8671441
  15.0366326  75.3811939  20.4668735  14.3438122  74.9108918  20.7129467
  15.6526653  75.1550243  21.0410443  15.0250856  75.2779070  20.5877888
  22.5000396  73.2648347  13.5655114  21.7956722  72.7757532  13.7239034
  22.5485370  73.2770821  12.6943559  22.4030447  73.1937995  13.4594454
  29.7030615  76.9456013  11.5856125  29.4467180  76.1335954  11.3954008
  30.5459929  76.9533580  11.3586312  29.7896641  76.8268010  11.5240942
  23.8833708  70.8855637  16.3232279  24.2644220  70.2033808  16.7100153
  23.0796992  70.5965239  16.1407944  23.8210170  70.7422685  16.3536335
  17.8425548  73.3909835  26.1894888  17.5278989  74.1609398  25.9264450
  17.5215481  72.8280091  25.6047115  17.7484467  73.4220104  26.0636238
  34.1093987  80.5243058  16.8111316  34.0418488  80.5439017  15.9413903
  34.0949650  81.3673385  17.0366987  34.0972744  80.6516793  16.7163793
  24.5190334  71.9278216  20.1352406  25.2643926  71.7388026  19.7215831
  24.1027639  72.4536454  19.5766262  24.5675308  71.9780361  19.9916979
  31.8952605  79.2987444  15.0857911  32.4460526  78.6655513  15.3255003
  31.8796720  79.8302837  15.7773415  31.9737801  79.2836392  15.2236769
  25.5981011  77.5383778  14.1962507  25.2545777  76.8174113  14.5469757
  25.6974054  77.3297629  13.3540865  25.5623054  77.4007981  14.1234187
  24.1171976  75.4575363  16.0722050  23.2783077  75.4836642  15.8360313
  24.1876344  76.1046098  16.6527396  24.0040370  75.5571488  16.1231167
  22.5641255  72.3560740  10.8049666  23.2667608  72.1568488  10.3269624
  22.2985443  71.5836682  11.1118509  22.6287887  72.2123706  10.7795107
  17.3269811  73.6196025  19.8580546  17.1353008  73.6351159  20.7079970
  18.1768407  73.8159699  19.8347201  17.4245533  73.6510376  19.9803841
  21.8655316  77.9854096  11.9808851  21.6190031  77.9049847  12.8145640
  22.1940439  77.2007564  11.7871379  21.8776560  77.8580362  12.0756374
  20.2374038  73.8151534  20.0652370  20.6946652  74.5475509  20.1925162
  20.3130367  73.3917999  20.8239625  20.3165008  73.8608772  20.1953446
  12.4807029  74.0617354  21.1541813  11.9449219  73.4497712  21.4702581
  12.5424794  74.6365490  21.8075480  12.4102662  74.0564282  21.2977240
  24.7101364  66.9941409  13.9346212  24.8284932  67.4517873  13.2013515
  24.5363540  66.1886671  13.6482430  24.7020535  66.9435181  13.7847146
  18.1156416  75.8053638  16.9094194  17.3252491  75.6245098  17.2311529
  18.5117039  75.0280591  16.8924488  18.0573292  75.6641099  16.9546742
  22.2864199  75.7392276  19.8877532  22.5006169  75.1003190  19.3340886
  21.6698098  76.1838100  19.4585393  22.2269528  75.7102420  19.7427963
  24.4503287  77.3481341  20.8260839  23.6379969  77.0407232  20.9074011
  24.9093222  76.8680341  21.3903551  24.3983672  77.2317834  20.9215433
  21.6778928  68.8492212  14.8764874  20.8072486  68.8230933  14.8298184
  21.9319269  68.6769404  14.0590720  21.5872488  68.8202355  14.7485011
  20.7720302  71.3991400  18.1631197  20.3852055  71.4240432  18.9444727
  20.2853239  70.8333079  17.7105714  20.6432811  71.3187151  18.2119101
  26.7470281  77.9654055  16.7870899  26.3197889  77.8780404  16.0318999
  26.1096334  78.0731831  17.3725744  26.5899888  77.9686715  16.7616341
  20.4377443  68.2858386  20.4541457  21.0670561  68.8218686  20.1762528
  20.6063306  68.1935745  21.3055023  20.5555238  68.3519748  20.5389985
  20.2391358  73.0729580  22.7267869  21.0664788  72.8014729  22.7826483
  20.2599204  73.8690422  23.0831687  20.3644208  73.1509335  22.7883052
  23.9301362  70.8194274  13.4226759  24.1350955  70.7516582  14.2683756
  23.6027786  71.6253095  13.3547936  23.9116610  70.9280215  13.5386414
  27.1835050  71.3726038  12.9029524  26.5709363  71.8596441  13.2883256
  27.2799224  70.6969529  13.4467176  27.1072947  71.3444347  13.0408383
  15.1030279  73.7739203  17.9997780  15.5631760  73.8478133  18.7372904
  15.1486385  74.5720457  17.6497601  15.1780834  73.9033350  18.0570536
  16.7513628  74.4405898  22.5669807  16.3599194  73.7939245  23.0025585
  16.9199491  75.0317333  23.1864062  16.7184539  74.4320166  22.7232513
  20.4446726  71.6281673  14.1403893  19.5982771  71.8004481  14.0145242
  20.4417858  70.8231017  14.4769721  20.3193876  71.5342702  14.1715019
  21.5145026  75.4056887  15.0065950  21.0404981  74.8798649  15.5171261
  21.8863162  74.8586360  14.4380812  21.4994915  75.2472884  14.9981098
  29.7786944  77.2460720  14.3701990  29.5396714  77.2056554  13.5322775
  29.9420845  78.0931872  14.4967711  29.7677247  77.3652805  14.2655472
  22.4630891  70.0025226  19.8085572  21.9671452  70.1988901  19.1177139
  23.2199953  70.4017895  19.6374374  22.5017716  70.0902960  19.6805709
  19.7333770  73.6767572  16.3988883  19.7576258  73.1427685  15.7101663
  19.9845244  73.1684881  17.0614473  19.7743689  73.5228476  16.3953528
  16.0135093  72.4038390  15.7794627  16.0533464  72.9047597  16.4929335
  15.1884757  72.4948784  15.5100550  15.8974619  72.4920207  15.8445165
  15.2433239  72.4107793  23.7124937  15.8685943  71.8669926  23.9854369
  14.7883719  71.9302711  23.1432727  15.2681500  72.2597275  23.6686531
  22.8123860  73.3807772  18.2720142  23.2378932  72.9280299  17.6603668
  22.1980853  72.8267843  18.5484929  22.7852506  73.2321748  18.2225167
  21.2518083  69.8522872  11.6810719  20.6086401  69.7020518  12.2495857
  20.9117490  69.6065217  10.9159823  21.1063160  69.7934995  11.6513734
  25.8417429  77.8082299  11.1040727  25.1708619  78.3512001  10.9753793
  26.5357180  78.2777154  10.8622422  25.8446297  77.9580570  11.0496255
  26.0045557  74.2638182  14.0131101  26.3573167  73.8367905  14.6876899
  25.1460358  74.1789026  14.1432177  25.9295002  74.1882923  14.1326111
  24.0028823  77.5273551  17.9615943  23.9826750  77.3456846  18.8150722
  24.0508023  78.3985570  17.9375527  24.0063464  77.6290089  18.0839238
  27.4369617  69.3856594  14.9415413  26.9300482  68.6785734  14.8736591
  28.2337051  69.0549783  15.0716490  27.4796856  69.2329746  14.9514408
  23.3533633  75.8923207  10.8389077  23.1247326  75.9155908   9.9967435
  23.6131709  75.0680674  10.9584087  23.3579821  75.7739287  10.7314275
  21.5121932  75.6681924  22.8816433  22.0693362  75.4395734  22.2494898
  21.1882997  76.4287590  22.6051645  21.5468342  75.7465761  22.7472930
  26.0790339  74.8823144  11.0892235  26.0784565  74.7271800  11.9476512
  25.8746519  75.7286131  11.0333621  26.0490117  74.9843765  11.2080175
  19.3731104  70.7986068  20.7164823  19.5059010  70.0017061  21.0445799
  19.7576257  71.3252471  21.2963099  19.4487433  70.7585985  20.8508326
  22.4463460  67.7216394  17.3145916  21.6409423  67.6114124  17.6313755
  22.3170195  67.8228850  16.4575782  22.3083592  67.7200064  17.2353957
  25.9029420  73.8861886  17.9085613  25.3192409  74.3871093  17.4963181
  26.2233714  73.3791442  17.2749937  25.8642595  73.8853721  17.7544120
  17.0319551  70.7945243  18.9642717  17.5763964  70.4536370  19.5547059
  17.0856487  71.6530705  19.1064001  17.1208671  70.8700502  19.0724590
  35.6833947  82.5126717  13.9346212  35.8017516  82.9703181  13.2013515
  35.5096123  81.7071979  13.6482430  35.6753118  82.4620489  13.7847146
   2.2924251  33.5367426  12.8738847   2.4021216  32.7475987  13.2295594
   2.6215147  33.4473362  12.0713185   2.3576657  33.4073279  12.8081238
  13.3886591  45.7362148  11.3140072  14.0953358  45.2414179  11.4427006
  13.5774526  46.1771229  10.5842730  13.5214496  45.7280498  11.2249117
  12.9244695  41.5267666   4.3511267  13.4700655  42.2052753   4.4105237
  12.8661571  41.3855127   3.4912849  12.9960609  41.6059668   4.2323328
  18.8105555  45.8791016   0.4090065  17.9803259  46.0901660   0.5723481
  18.7614808  45.0528071   0.1332348  18.6812291  45.7880623   0.3927430
  10.5278885  49.1589684   9.2054147  10.6162231  48.9715825  10.0532357
  10.9568597  48.5127114   8.8058994  10.6040987  49.0352692   9.2725899
   8.0949345  48.4420844   8.1871809   7.5320180  48.0293454   8.7111471
   8.8570368  48.3673750   8.6064953   8.1243793  48.3698245   8.3264810
  18.3059514  38.5261417   4.2040486  17.4687935  38.5963604   4.4388080
  18.2747745  38.5285912   3.3314788  18.1777796  38.5371644   4.1100034
   4.7024243  40.6694453   9.9188855   4.8744746  40.5600347  10.7674136
   5.2393600  41.3148858   9.6820047   4.8069247  40.7486454  10.0093951
  16.0669871  46.5490371   0.5454780  15.6305102  46.5527113   1.3013752
  15.7332786  47.2295870   0.1134358  15.9532491  46.6502826   0.5935613
  10.6398944  48.5898703  11.8697931  11.4239361  48.7029551  12.2353673
  10.4395539  47.7639841  12.0656617  10.7264970  48.4845423  11.9532317
  10.7969338  50.5008806   5.5164386   9.9984583  50.2608306   5.7738255
  11.2455349  50.5523198   6.2631434  10.7443949  50.4731197   5.6649311
   2.4825125  40.7670166   8.5435627   3.2065097  40.7523196   9.0300522
   2.5841262  41.4765521   8.0457596   2.6043334  40.8694869   8.5414414
   9.8570074  44.2469250  13.4084574   9.0643055  44.5612762  13.5937194
   9.9719002  44.4620719  12.5705359   9.7565485  44.3253087  13.3122909
  10.7853867  44.1489454   8.3469871  11.3592729  43.5116698   8.5018435
  10.7068671  44.1493537   7.4779529  10.8587102  44.0554566   8.2416282
  16.1074015  45.5198432   8.3554724  15.8712652  44.6886497   8.2366785
  16.7517244  45.4684039   8.9409569  16.1668686  45.3896120   8.4240618
   6.5643789  34.8102658  13.1234934   6.2497230  35.5802221  12.8604497
   6.2433721  34.2472914  12.5387161   6.4702708  34.8412927  12.9976284
  17.1310436  45.3042881   4.4183019  16.8256253  46.0370937   4.7796335
  16.4116651  44.8980810   4.1375805  16.9797778  45.3524614   4.4296156
  22.8312228  41.9435881   3.7451363  22.7636728  41.9631840   2.8753950
  22.8167890  42.7866208   3.9707034  22.8190984  42.0709616   3.6503840
  20.6170845  40.7180267   2.0197958  21.1678767  40.0848336   2.2595050
  20.6014961  41.2495660   2.7113462  20.6956042  40.7029216   2.1576816
   7.2693236  44.5518865   6.5657851   6.7704930  45.2634632   6.6442739
   8.0793460  44.8719531   6.5276013   7.3149343  44.7045713   6.5714420
   6.1960294  37.4099909  11.8620149   5.3860070  37.7157689  11.7509992
   6.6734981  38.1305491  11.9772733   6.1463773  37.5614510  11.8627220
  14.4821606  46.1130279   2.7035679  14.3435965  46.8111325   3.2084422
  13.7021603  45.9578936   2.3471861  14.3464832  46.1930446   2.7261953
  12.8199691  42.4126654   8.9558061  12.8147729  41.5406471   8.9600487
  13.5260685  42.6114824   8.4827517  12.9244695  42.3130529   8.8865096
   6.5470584  42.1403638   8.3271881   6.6913960  42.7204846   7.6914991
   6.8946233  42.5179935   9.0321736   6.6198045  42.2824342   8.3370876
   8.7190501  41.3393807   6.1097013   7.9713815  41.5324821   5.7045291
   8.8732027  40.5139026   5.8721134   8.6312929  41.2458918   6.0142418
   9.3512487  39.7006720   8.3257739   9.2871628  40.5616677   8.1977876
   9.4909674  39.3838714   7.5253291   9.3627957  39.7806887   8.1885952
  13.7310277  46.4751442  13.8822190  14.5445143  46.2036591  14.0427323
  13.5705244  46.1758982  13.0782386  13.8280226  46.3906368  13.7867596
  13.1721527  38.7674165   7.7600885  12.3598209  38.4600055   7.8414058
  13.6311462  38.2873165   8.3243598  13.1201912  38.6510657   7.8555480
  10.2675035  40.1734236  12.5429588  10.7374666  40.7976352  12.9297462
  10.3136915  39.5051211  13.1022802  10.3442911  40.1668916  12.6829659
  13.7431521  47.5357732   9.1545031  14.3811242  47.0417928   8.8207487
  13.1005613  47.4635133   8.5697258  13.7425748  47.4516741   9.0187386
   8.9609599  34.4922404   9.6607916   9.7883028  34.2207553   9.7166530
   8.9817445  35.2883245  10.0171734   9.0862449  34.5702158   9.7223099
  13.7985778  48.2277541   5.7950387  14.5878156  47.8766605   5.9152469
  13.9729376  49.0413929   5.5327021  13.9406060  48.2963398   5.7738255
   5.4731869  35.8598721   9.5009854   5.0817434  35.2132069   9.9365632
   5.6417732  36.4510157  10.1204109   5.4402779  35.8512989   9.6572560
  19.5478318  43.8635798   5.2647087  19.6061442  44.3122447   6.0107064
  18.9144785  44.2734611   4.8277167  19.4629613  43.9909533   5.3099636
  16.4999997  41.8852086   3.3512778  16.2598220  41.0458501   3.3555204
  16.9792005  41.9652253   4.0753551  16.5352181  41.7733486   3.4587580
  15.1051214  43.0503493   7.2347082  15.8285413  42.5976019   7.0558102
  14.8401177  43.3308158   6.4519410  15.1732488  43.0254461   7.0925797
  10.8870004  43.1487371   5.3842097  10.2726997  42.6045421   5.6790732
  11.4037289  42.6351607   4.9047913  10.8725666  42.9923780   5.3566325
   6.9182946  43.3891954  10.8154969   6.0678576  43.5263668  10.9512614
   7.0811074  42.6555732  11.2602670   6.8166809  43.3006055  10.9010568
  17.5386528  42.0129903   5.7377632  18.1304369  42.6527154   5.7695830
  17.9745523  41.3152940   6.0269699  17.6904960  42.0048254   5.7858464
   9.3679918  46.4347276   6.3635526   8.8605009  46.9883123   6.8076156
   9.0706565  46.4955566   5.5454300   9.2484803  46.5253587   6.3083982
  12.7247063  38.9466374   4.8955990  12.7044990  38.7649669   5.7490769
  12.7726264  39.8178393   4.8715573  12.7281704  39.0482913   5.0179284
  10.6693393  45.5353566  10.8204466  10.6289248  44.8903243  10.2349622
  11.4816711  45.4790184  11.1329878  10.7836546  45.4312533  10.7801415
   6.3571102  39.1650503   7.3754224   5.8450005  38.5571686   7.7339255
   6.1850598  39.8807095   7.8428200   6.2560739  39.1813802   7.4970448
  10.2340172  37.0874748   9.8156479  10.7911602  36.8588557   9.1834945
   9.9101237  37.8480413   9.5391692  10.2686582  37.1658584   9.6812977
   7.9523289  40.1742401  10.7808487   8.7034616  40.4894078  11.0948041
   8.1445866  39.9721572   9.9542408   8.0914703  40.1909783  10.7051882
  14.5901250  43.7317156   4.3645618  15.0156322  43.2091578   3.8116043
  14.2258170  44.3297994   3.8434241  14.5987853  43.7427383   4.2054627
  13.2656834  49.0552734  12.8738847  13.3753800  48.2661295  13.2295594
  13.5947731  48.9658670  12.0713185  13.3309240  48.9258587  12.8081238
  11.8153796  47.2369355   7.4574468  11.2674742  46.6127238   7.1894533
  12.2766825  47.4263627   6.7418547  11.8021006  47.1728405   7.3124899
  11.3812122  48.2420428   3.9883809  12.2010496  48.0983394   4.2500104
  11.1006200  48.8666626   4.5300247  11.4608866  48.3130780   4.1071748
  27.8525773  55.8985279  -3.0473315  27.8219777  56.7529916  -2.8755045
  28.4507122  55.5980572  -2.4887171  27.9362931  55.9801776  -2.9398512
  21.0525458  54.9860930   1.7079616  20.1963353  55.1469428   1.7588733
  21.0993111  54.1152994   1.7284677  20.9324569  54.8811732   1.7185682
  24.3619174  61.2547456  11.3140072  25.0685941  60.7599487  11.4427006
  24.5507110  61.6956537  10.5842730  24.4947080  61.2465806  11.2249117
  23.8977279  57.0452974   4.3511267  24.4433239  57.7238061   4.4105237
  23.8394155  56.9040435   3.4912849  23.9693193  57.1244976   4.2323328
  17.7801244  49.8339996   0.6769999  17.4504575  50.2851139   0.0073698
  17.1046246  49.7556159   1.2243005  17.6311681  49.8891131   0.6593222
  24.9877652  45.8225519  -1.0780390  24.6731093  46.5128997  -0.6459968
  24.4704594  45.7670301  -1.7794890  24.8642123  45.9160407  -1.1183441
  29.7838139  61.3976324   0.4090065  28.9535842  61.6086968   0.5723481
  29.7347391  60.5713379   0.1332348  29.6544874  61.3065930   0.3927430
  21.5011469  64.6774992   9.2054147  21.5894814  64.4901133  10.0532357
  21.9301181  64.0312422   8.8058994  21.5773571  64.5538000   9.2725899
  19.0681928  63.9606152   8.1871809  18.5052763  63.5478762   8.7111471
  19.8302952  63.8859058   8.6064953  19.0976377  63.8883553   8.3264810
  29.2792097  54.0446725   4.2040486  28.4420518  54.1148912   4.4388080
  29.2480328  54.0471220   3.3314788  29.1510380  54.0556952   4.1100034
  15.6756826  56.1879760   9.9188855  15.8477330  56.0785655  10.7674136
  16.2126184  56.8334166   9.6820047  15.7801830  56.2671762  10.0093951
  24.0022283  58.2402401  -0.2047623  24.7579798  58.6733916  -0.1658714
  24.1084608  57.5907171   0.3687013  24.1292454  58.2079885  -0.1149597
  27.0402454  62.0675679   0.5454780  26.6037686  62.0712421   1.3013752
  26.7065370  62.7481178   0.1134358  26.9265074  62.1688134   0.5935613
  21.6131528  64.1084011  11.8697931  22.3971944  64.2214859  12.2353673
  21.4128122  63.2825149  12.0656617  21.6997553  64.0030731  11.9532317
  26.9599937  49.1089506   2.7884208  27.6025846  49.1787611   3.3746124
  27.2122958  48.4418729   2.2863750  27.0922069  49.0215855   2.8011488
  14.7317150  52.3190070   7.4008782  14.0388946  51.8487050   7.6469514
  15.3477477  52.0928374   7.9750489  14.7201680  52.2157202   7.5217935
  21.7701921  66.0194113   5.5164386  20.9717167  65.7793614   5.7738255
  22.2187933  66.0708506   6.2631434  21.7176532  65.9916505   5.6649311
  30.1746800  58.7856598  -0.5625582  30.8363234  58.2247267  -0.6629674
  29.5338212  58.2908629  -0.2372891  30.1775668  58.6293008  -0.5293242
  26.4611631  59.8021981  -0.8213594  26.6967220  59.9467180  -1.6486743
  26.6101195  60.5664389  -0.4282080  26.5177434  59.9361035  -0.8849990
  13.4557709  56.2855474   8.5435627  14.1797681  56.2708504   9.0300522
  13.5573845  56.9950829   8.0457596  13.5775918  56.3880177   8.5414414
  28.2902088  58.6423647  -2.9843990  28.6210305  59.1751287  -3.5903895
  28.8635176  58.6962535  -2.3282039  28.4235767  58.7293216  -2.9766208
  20.8302658  59.7654558  13.4084574  20.0375639  60.0798070  13.5937194
  20.9451585  59.9806027  12.5705359  20.7298069  59.8438395  13.3122909
  21.7586451  59.6674762   8.3469871  22.3325312  59.0302006   8.5018435
  21.6801255  59.6678845   7.4779529  21.8319686  59.5739874   8.2416282
  22.1951220  50.2026478   0.4995161  21.4907546  49.7135663   0.6579080
  22.2436194  50.2148952  -0.3716394  22.0981271  50.1316126   0.3934501
  19.7558170  54.1259139   5.7448342  19.3672603  53.7013357   5.0900533
  19.0912869  54.3741289   6.2525368  19.6005098  54.0997860   5.7236210
  29.3981439  53.8834144  -1.4803828  29.1418004  53.0714085  -1.6705945
  30.2410753  53.8911711  -1.7073641  29.4847465  53.7646141  -1.5419011
  23.5784532  47.8233768   3.2572326  23.9595044  47.1411939   3.6440200
  22.7747816  47.5343370   3.0747990  23.5160993  47.6800816   3.2876382
  27.0806599  61.0383740   8.3554724  26.8445236  60.2071805   8.2366785
  27.7249828  60.9869347   8.9409569  27.1401269  60.9081428   8.4240618
  17.5376372  50.3287966  13.1234934  17.2229813  51.0987529  12.8604497
  17.2166305  49.7658222  12.5387161  17.4435291  50.3598235  12.9976284
  28.1043019  60.8228188   4.4183019  27.7988836  61.5556245   4.7796335
  27.3849235  60.4166118   4.1375805  27.9530362  60.8709921   4.4296156
  33.8044811  57.4621189   3.7451363  33.7369312  57.4817148   2.8753950
  33.7900474  58.3051516   3.9707034  33.7923568  57.5894924   3.6503840
  24.2141158  48.8656347   7.0692453  24.9594750  48.6766157   6.6555878
  23.7978462  49.3914585   6.5106309  24.2626132  48.9158492   6.9257026
  31.5903429  56.2365575   2.0197958  32.1411350  55.6033644   2.2595050
  31.5747544  56.7680968   2.7113462  31.6688625  56.2214524   2.1576816
  18.2425820  60.0704173   6.5657851  17.7437513  60.7819940   6.6442739
  19.0526044  60.3904839   6.5276013  18.2881926  60.2231021   6.5714420
  25.2931835  54.4761909   1.1302554  24.9496601  53.7552244   1.4809803
  25.3924878  54.2675760   0.2880912  25.2573878  54.3386112   1.0574234
  17.1692878  52.9285217  11.8620149  16.3592653  53.2342997  11.7509992
  17.6467564  53.6490799  11.9772733  17.1196356  53.0799818  11.8627220
  23.8122800  52.3953494   3.0062097  22.9733901  52.4214773   2.7700360
  23.8827168  53.0424229   3.5867443  23.6991194  52.4949620   3.0571214
  22.2592079  49.2938871  -2.2610287  22.9618431  49.0946619  -2.7390329
  21.9936267  48.5214813  -1.9541444  22.3238711  49.1501837  -2.2864846
  27.6880324  57.6021481   0.2923338  27.6014299  57.7576907   1.1458117
  27.2330804  58.2459556  -0.0817257  27.6083581  57.7197236   0.3630445
  17.0220635  50.5574156   6.7920593  16.8303832  50.5729290   7.6420017
  17.8719231  50.7537830   6.7687248  17.1196357  50.5888507   6.9143888
  21.5606140  54.9232228  -1.0851102  21.3140855  54.8427979  -0.2514313
  21.8891263  54.1385696  -1.2788575  21.5727384  54.7958493  -0.9903579
  25.4554189  61.6315587   2.7035679  25.3168548  62.3296633   3.2084422
  24.6754187  61.4764243   2.3471861  25.3197416  61.7115754   2.7261953
  23.7932274  57.9311962   8.9558061  23.7880313  57.0591779   8.9600487
  24.4993268  58.1300132   8.4827517  23.8977278  57.8315837   8.8865096
  17.5203168  57.6588946   8.3271881  17.6646543  58.2390154   7.6914991
  17.8678816  58.0365243   9.0321736  17.5930629  57.8009650   8.3370876
  19.6923085  56.8579115   6.1097013  18.9446399  57.0510129   5.7045291
  19.8464610  56.0324334   5.8721134  19.6045512  56.7644226   6.0142418
  19.9324862  50.7529665   6.9992416  20.3897476  51.4853640   7.1265209
  20.0081191  50.3296131   7.7579672  20.0115832  50.7986903   7.1293493
  12.1757853  50.9995485   8.0881860  11.6400043  50.3875843   8.4042627
  12.2375618  51.5743621   8.7415527  12.1053486  50.9942413   8.2317287
  24.4052188  43.9319541   0.8686259  24.5235756  44.3896004   0.1353562
  24.2314364  43.1264802   0.5822477  24.3971359  43.8813313   0.7187193
  17.8107240  52.7431769   3.8434240  17.0203315  52.5623229   4.1651576
  18.2067863  51.9658722   3.8264535  17.7524116  52.6019230   3.8886789
  23.1950926  60.3774199   1.5693686  22.5195928  60.1459432   2.0707073
  23.2043302  59.7695382   0.9435791  23.0969431  60.2533125   1.5509839
  20.3245070  55.2192028   8.3257739  20.2604211  56.0801985   8.1977876
  20.4642258  54.9024022   7.5253291  20.3360540  55.2992195   8.1885952
  24.7042861  61.9936750  13.8822190  25.5177726  61.7221899  14.0427323
  24.5437827  61.6944290  13.0782386  24.8012809  61.9091676  13.7867596
  21.9815023  52.6770407   6.8217578  22.1956993  52.0381321   6.2680932
  21.3648922  53.1216231   6.3925440  21.9220352  52.6480551   6.6768009
  24.1454111  54.2859472   7.7600885  23.3330793  53.9785363   7.8414058
  24.6044046  53.8058473   8.3243598  24.0934496  54.1695965   7.8555480
  21.3729752  45.7870343   1.8104921  20.5023310  45.7609064   1.7638231
  21.6270093  45.6147535   0.9930767  21.2823312  45.7580487   1.6825058
  21.2407619  55.6919544  12.5429588  21.7107250  56.3161660  12.9297462
  21.2869499  55.0236519  13.1022802  21.3175494  55.6854224  12.6829659
  18.3978892  47.7976571   3.2678392  17.8817381  47.1056763   3.3929971
  17.8372821  48.4647348   3.2140990  18.2385405  47.7939829   3.2784458
  20.4671126  48.3369531   5.0971244  20.0802879  48.3618563   5.8784774
  19.9804063  47.7711210   4.6445761  20.3383634  48.2565282   5.1459148
  24.7164105  63.0543040   9.1545031  25.3543826  62.5603236   8.8207487
  24.0738197  62.9820441   8.5697258  24.7158332  62.9702049   9.0187386
  26.4421105  54.9032186   3.7210946  26.0148713  54.8158535   2.9659046
  25.8047158  55.0109962   4.3065790  26.2850712  54.9064846   3.6956388
  20.1328267  45.2236517   7.3881504  20.7621385  45.7596817   7.1102574
  20.3014130  45.1313876   8.2395070  20.2506062  45.2897879   7.4730032
  19.9342182  50.0107712   9.6607916  20.7615612  49.7392860   9.7166530
  19.9550028  50.8068553  10.0171734  20.0595032  50.0887466   9.7223099
  24.7718362  63.7462849   5.7950387  25.5610740  63.3951913   5.9152469
  24.9461959  64.5599237   5.5327021  24.9138643  63.8148706   5.7738255
  23.6252186  47.7572405   0.3566806  23.8301779  47.6894713   1.2023803
  23.2978610  48.5631227   0.2887983  23.6067434  47.8658346   0.4726461
  26.8785873  48.3104170  -0.1630429  26.2660187  48.7974572   0.2223303
  26.9750048  47.6347660   0.3807223  26.8023771  48.2822478  -0.0251570
  14.7981103  50.7117334   4.9337827  15.2582584  50.7856264   5.6712951
  14.8437209  51.5098588   4.5837648  14.8731658  50.8411482   4.9910583
  16.4464452  51.3784029   9.5009854  16.0550018  50.7317376   9.9365632
  16.6150315  51.9695465  10.1204109  16.4135363  51.3698297   9.6572560
  30.5210901  59.3821106   5.2647087  30.5794025  59.8307755   6.0107064
  29.8877369  59.7919919   4.8277167  30.4362197  59.5094841   5.3099636
  21.2095850  52.3435018   1.9405997  20.7355805  51.8176780   2.4511308
  21.5813986  51.7964491   1.3720859  21.1945739  52.1851015   1.9321144
  11.5868880  54.3406525   7.3089543  12.4494494  54.2402234   7.2226873
  11.2560663  53.7601234   6.7475115  11.6654077  54.2398152   7.2134949
  27.4732581  57.4037394   3.3512778  27.2330804  56.5643809   3.3555204
  27.9524588  57.4837561   4.0753551  27.5084765  57.2918794   3.4587580
  29.4737768  54.1838851   1.3042037  29.2347538  54.1434685   0.4662821
  29.6371669  55.0310003   1.4307758  29.4628071  54.3030936   1.1995519
  26.0783798  58.5688801   7.2347082  26.8017997  58.1161327   7.0558102
  25.8133760  58.8493466   6.4519410  26.1465071  58.5439769   7.0925797
  21.8602588  58.6672679   5.3842097  21.2459581  58.1230729   5.6790732
  22.3769873  58.1536915   4.9047913  21.8458250  58.5109088   5.3566325
  21.0998885  59.7376949   3.1186396  20.6726493  59.1126667   2.6851831
  21.0923829  59.4551871   3.9445403  21.0358026  59.6029729   3.1766223
  14.2161412  54.7742122   6.1874830  14.3754899  54.0185446   6.5926552
  14.0354305  55.3233061   6.8415567  14.2126771  54.7435936   6.3437536
  22.1581715  46.9403357   6.7425619  21.6622276  47.1367032   6.0517186
  22.9150777  47.3396026   6.5714421  22.1968540  47.0281091   6.6145756
  19.4284594  50.6145703   3.3328930  19.4527082  50.0805816   2.6441710
  19.6796068  50.1063012   3.9954520  19.4694513  50.4606607   3.3293574
  15.7085917  49.3416522   2.7134674  15.7484288  49.8425728   3.4269381
  14.8835581  49.4326915   2.4440597  15.5925443  49.4298338   2.7785212
  17.8915530  58.9077262  10.8154969  17.0411160  59.0448976  10.9512614
  18.0543657  58.1741040  11.2602670  17.7899393  58.8191363  10.9010568
  17.1300280  55.8577031   5.0108573  16.2992210  56.0250849   4.8043821
  17.0751797  55.4812982   5.7957458  16.9989695  55.8266763   5.0957101
  14.9384063  49.3485924  10.6464984  15.5636767  48.8048057  10.9194416
  14.4834543  48.8680842  10.0772774  14.9632324  49.1975406  10.6026578
  28.5119112  57.5315211   5.7377632  29.1036952  58.1712462   5.7695830
  28.9478107  56.8338248   6.0269699  28.6637543  57.5233562   5.7858464
  20.3412502  61.9532584   6.3635526  19.8337593  62.5068431   6.8076156
  20.0439148  62.0140874   5.5454300  20.2217387  62.0438895   6.3083982
  22.5074684  50.3185903   5.2060189  22.9329756  49.8658430   4.5943715
  21.8931677  49.7645974   5.4824976  22.4803329  50.1699880   5.1565214
  20.9468907  46.7901003  -1.3849234  20.3037225  46.6398650  -0.8164096
  20.6068314  46.5443348  -2.1500130  20.8013984  46.7313126  -1.4146219
  25.5368253  54.7460430  -1.9619226  24.8659443  55.2890132  -2.0906160
  26.2308004  55.2155285  -2.2037531  25.5397121  54.8958701  -2.0163698
  25.6996381  51.2016314   0.9471147  26.0523991  50.7746037   1.6216946
  24.8411182  51.1167157   1.0772224  25.6245826  51.1261054   1.0666158
  23.6979647  54.4651682   4.8955990  23.6777574  54.2834977   5.7490769
  23.7458847  55.3363701   4.8715573  23.7014288  54.5668221   5.0179284
  21.6425977  61.0538874  10.8204466  21.6021831  60.4088551  10.2349622
  22.4549295  60.9975492  11.1329878  21.7569130  60.9497841  10.7801415
  27.1320441  46.3234725   1.8755460  26.6251306  45.6163865   1.8076637
  27.9287875  45.9927914   2.0056537  27.1747680  46.1707877   1.8854455
  23.0484457  52.8301338  -2.2270876  22.8198150  52.8534039  -3.0692518
  23.3082533  52.0058805  -2.1075866  23.0530645  52.7117418  -2.3345679
  17.3303685  54.6835811   7.3754224  16.8182588  54.0756994   7.7339255
  17.1583181  55.3992403   7.8428200  17.2293322  54.6999110   7.4970448
  12.1769400  53.1273386  10.0256586  12.0071990  53.7874761   9.4804792
  11.7335350  53.3379947  10.7469075  12.0868734  53.2559368  10.0518215
  21.2072756  52.6060055   9.8156479  21.7644186  52.3773865   9.1834945
  20.8833821  53.3665721   9.5391692  21.2419166  52.6843892   9.6812977
  18.9255873  55.6927709  10.7808487  19.6767200  56.0079386  11.0948041
  19.1178449  55.4906880   9.9542408  19.0647287  55.7095091  10.7051882
  25.7741163  51.8201275  -1.9767718  25.7735389  51.6649932  -1.1183442
  25.5697343  52.6664262  -2.0326332  25.7440941  51.9221896  -1.8579779
  23.4982015  56.4998777   1.6768489  23.9935680  55.7821772   1.6372509
  22.6881791  56.1969575   1.5622976  23.4525908  56.3496423   1.6542215
  25.5633834  59.2502464   4.3645618  25.9888905  58.7276886   3.8116043
  25.1990754  59.8483302   3.8434241  25.5720436  59.2612691   4.2054627
  24.2389418  64.5738042  12.8738847  24.3486383  63.7846603  13.2295594
  24.5680315  64.4843978  12.0713185  24.3041824  64.4443895  12.8081238
  19.0681928  47.7364199   7.6504870  19.2009834  46.9395193   7.9785845
  19.4527081  48.2630602   8.2303146  19.1438257  47.6964116   7.7848373
  22.7886380  62.7554663   7.4574468  22.2407326  62.1312546   7.1894533
  23.2499408  62.9448935   6.7418547  22.7753589  62.6913713   7.3124899
  22.1414283  44.6594525   4.2485963  21.3360247  44.5492255   4.5653801
  22.0121019  44.7606981   3.3915829  22.0034416  44.6578195   4.1694004
  25.5980244  50.8240017   4.8425660  25.0143233  51.3249224   4.4303227
  25.9184538  50.3169573   4.2089983  25.5593419  50.8231852   4.6884167
  16.7270375  47.7323374   5.8982764  17.2714788  47.3914501   6.4887105
  16.7807311  48.5908836   6.0404048  16.8159494  47.8078634   6.0064637
  22.3544706  63.7605735   3.9883809  23.1743080  63.6168701   4.2500104
  22.0738784  64.3851934   4.5300247  22.4341449  63.8316087   4.1071748
  35.3351758  76.7732764  11.3140072  36.0418525  76.2784795  11.4427006
  35.5239693  77.2141845  10.5842730  35.4679663  76.7651114  11.2249117
  28.7533828  65.3525304   0.6769999  28.4237158  65.8036447   0.0073698
  28.0778830  65.2741467   1.2243005  28.6044264  65.4076439   0.6593222
  26.6489410  71.7065068   9.9188855  26.8209914  71.5970963  10.7674136
  27.1858767  72.3519474   9.6820047  26.7534414  71.7857070  10.0093951
  32.5864111  79.6269319  11.8697931  33.3704528  79.7400167  12.2353673
  32.3860706  78.8010456  12.0656617  32.6730137  79.5216039  11.9532317
  25.7049733  67.8375378   7.4008782  25.0121530  67.3672357   7.6469514
  26.3210061  67.6113682   7.9750489  25.6934263  67.7342510   7.5217935
  24.4290292  71.8040782   8.5435627  25.1530264  71.7893812   9.0300522
  24.5306429  72.5136137   8.0457596  24.5508501  71.9065485   8.5414414
  31.8035242  75.2839866  13.4084574  31.0108222  75.5983378  13.5937194
  31.9184169  75.4991335  12.5705359  31.7030652  75.3623703  13.3122909
  32.7319034  75.1860070   8.3469871  33.3057896  74.5487314   8.5018435
  32.6533838  75.1864152   7.4779529  32.8052269  75.0925181   8.2416282
  30.7290754  69.6444447   5.7448342  30.3405187  69.2198665   5.0900533
  30.0645452  69.8926597   6.2525368  30.5737682  69.6183168   5.7236210
  34.5517115  63.3419076   3.2572326  34.9327627  62.6597247   3.6440200
  33.7480400  63.0528678   3.0747990  34.4893577  63.1986124   3.2876382
  28.5108956  65.8473274  13.1234934  28.1962397  66.6172837  12.8604497
  28.1898888  65.2843530  12.5387161  28.4167875  65.8783543  12.9976284
  35.1873741  64.3841655   7.0692453  35.9327333  64.1951465   6.6555878
  34.7711046  64.9099893   6.5106309  35.2358716  64.4343800   6.9257026
  29.2158403  75.5889481   6.5657851  28.7170097  76.3005248   6.6442739
  30.0258627  75.9090147   6.5276013  29.2614510  75.7416329   6.5714420
  28.1425461  68.4470525  11.8620149  27.3325237  68.7528305  11.7509992
  28.6200148  69.1676107  11.9772733  28.0928940  68.5985126  11.8627220
  27.9953218  66.0759464   6.7920593  27.8036415  66.0914598   7.6420017
  28.8451814  66.2723138   6.7687248  28.0928940  66.1073815   6.9143888
  34.7664858  73.4497270   8.9558061  34.7612896  72.5777087   8.9600487
  35.4725852  73.6485439   8.4827517  34.8709862  73.3501144   8.8865096
  28.4935751  73.1774254   8.3271881  28.6379127  73.7575462   7.6914991
  28.8411400  73.5550551   9.0321736  28.5663212  73.3194958   8.3370876
  30.6655668  72.3764423   6.1097013  29.9178983  72.5695437   5.7045291
  30.8197194  71.5509642   5.8721134  30.5778096  72.2829534   6.0142418
  30.9057446  66.2714973   6.9992416  31.3630060  67.0038948   7.1265209
  30.9813774  65.8481439   7.7579672  30.9848415  66.3172211   7.1293493
  23.1490437  66.5180793   8.0881860  22.6132626  65.9061151   8.4042627
  23.2108201  67.0928929   8.7415527  23.0786069  66.5127721   8.2317287
  35.3784771  59.4504848   0.8686259  35.4968340  59.9081312   0.1353562
  35.2046947  58.6450110   0.5822477  35.3703942  59.3998621   0.7187193
  28.7839823  68.2617077   3.8434240  27.9935898  68.0808537   4.1651576
  29.1800446  67.4844030   3.8264535  28.7256700  68.1204538   3.8886789
  31.2977654  70.7377336   8.3257739  31.2336795  71.5987293   8.1977876
  31.4374841  70.4209330   7.5253291  31.3093124  70.8177503   8.1885952
  35.6775445  77.5122058  13.8822190  36.4910310  77.2407207  14.0427323
  35.5170411  77.2129598  13.0782386  35.7745393  77.4276984  13.7867596
  32.9547607  68.1955715   6.8217578  33.1689576  67.5566629   6.2680932
  32.3381506  68.6401539   6.3925440  32.8952936  68.1665859   6.6768009
  35.1186695  69.8044780   7.7600885  34.3063376  69.4970671   7.8414058
  35.5776629  69.3243781   8.3243598  35.0667079  69.6881273   7.8555480
  32.3462335  61.3055651   1.8104921  31.4755893  61.2794372   1.7638231
  32.6002676  61.1332843   0.9930767  32.2555895  61.2765795   1.6825058
  32.2140202  71.2104852  12.5429588  32.6839833  71.8346968  12.9297462
  32.2602082  70.5421827  13.1022802  32.2908078  71.2039532  12.6829659
  29.3711476  63.3161879   3.2678392  28.8549964  62.6242071   3.3929971
  28.8105405  63.9832656   3.2140990  29.2117989  63.3125137   3.2784458
  31.4403709  63.8554839   5.0971244  31.0535462  63.8803871   5.8784774
  30.9536646  63.2896518   4.6445761  31.3116218  63.7750590   5.1459148
  31.1060851  60.7421825   7.3881504  31.7353969  61.2782125   7.1102574
  31.2746714  60.6499184   8.2395070  31.2238645  60.8083187   7.4730032
  30.9074766  65.5293020   9.6607916  31.7348195  65.2578168   9.7166530
  30.9282612  66.3253861  10.0171734  31.0327616  65.6072774   9.7223099
  25.7713686  66.2302642   4.9337827  26.2315168  66.3041572   5.6712951
  25.8169793  67.0283896   4.5837648  25.8464242  66.3596789   4.9910583
  27.4197036  66.8969337   9.5009854  27.0282601  66.2502684   9.9365632
  27.5882899  67.4880773  10.1204109  27.3867946  66.8883605   9.6572560
  31.1130134  64.0845112   1.0743939  30.2666179  64.2567920   0.9485289
  31.1101266  63.2794456   1.4109768  30.9877283  63.9906141   1.1055066
  22.5601464  69.8591833   7.3089543  23.4227077  69.7587542   7.2226873
  22.2293247  69.2786542   6.7475115  22.6386660  69.7583460   7.2134949
  25.1893995  70.2927430   6.1874830  25.3487482  69.5370754   6.5926552
  25.0086889  70.8418369   6.8415567  25.1859354  70.2621244   6.3437536
  33.1314298  62.4588665   6.7425619  32.6354860  62.6552340   6.0517186
  33.8883360  62.8581334   6.5714421  33.1701123  62.5466399   6.6145756
  30.4017178  66.1331011   3.3328930  30.4259665  65.5991124   2.6441710
  30.6528652  65.6248320   3.9954520  30.4427097  65.9791915   3.3293574
  26.6818500  64.8601830   2.7134674  26.7216872  65.3611036   3.4269381
  25.8568165  64.9512223   2.4440597  26.5658026  64.9483646   2.7785212
  28.8648113  74.4262570  10.8154969  28.0143744  74.5634284  10.9512614
  29.0276241  73.6926348  11.2602670  28.7631977  74.3376671  10.9010568
  28.1032864  71.3762339   5.0108573  27.2724793  71.5436157   4.8043821
  28.0484381  70.9998290   5.7957458  27.9722279  71.3452071   5.0957101
  25.9116647  64.8671232  10.6464984  26.5369350  64.3233365  10.9194416
  25.4567127  64.3866150  10.0772774  25.9364907  64.7160714  10.6026578
  33.4807268  65.8371211   5.2060189  33.9062339  65.3843738   4.5943715
  32.8664261  65.2831282   5.4824976  33.4535913  65.6885188   5.1565214
  32.6158560  76.5724182  10.8204466  32.5754415  75.9273859  10.2349622
  33.4281878  76.5160800  11.1329878  32.7301714  76.4683149  10.7801415
  38.1053025  61.8420033   1.8755460  37.5983889  61.1349173   1.8076637
  38.9020458  61.5113222   2.0056537  38.1480264  61.6893185   1.8854455
  28.3036269  70.2021119   7.3754224  27.7915172  69.5942302   7.7339255
  28.1315765  70.9177711   7.8428200  28.2025906  70.2184418   7.4970448
  23.1501984  68.6458694  10.0256586  22.9804574  69.3060069   9.4804792
  22.7067933  68.8565255  10.7469075  23.0601317  68.7744676  10.0518215
  32.1805339  68.1245363   9.8156479  32.7376769  67.8959173   9.1834945
  31.8566404  68.8851029   9.5391692  32.2151749  68.2029200   9.6812977
  29.8988456  71.2113017  10.7808487  30.6499783  71.5264693  11.0948041
  30.0911033  71.0092188   9.9542408  30.0379871  71.2280398  10.7051882
  35.2122002  80.0923350  12.8738847  35.3218967  79.3031910  13.2295594
  35.5412898  80.0029286  12.0713185  35.2774407  79.9629203  12.8081238
  30.0414512  63.2549507   7.6504870  30.1742417  62.4580501   7.9785845
  30.4259665  63.7815910   8.2303146  30.1170841  63.2149424   7.7848373
  33.1146867  60.1779833   4.2485963  32.3092831  60.0677563   4.5653801
  32.9853603  60.2792289   3.3915829  32.9767000  60.1763503   4.1694004
  36.5712828  66.3425325   4.8425660  35.9875816  66.8434532   4.4303227
  36.8917122  65.8354881   4.2089983  36.5326003  66.3417160   4.6884167
  27.7002959  63.2508682   5.8982764  28.2447372  62.9099809   6.4887105
  27.7539894  64.1094144   6.0404048  27.7892078  63.3263942   6.0064637
  23.9340242  41.5116173  -0.1921106  24.0437207  40.7224734   0.1635641
  24.2631139  41.4222109  -0.9946768  23.9992648  41.3822026  -0.2578715
  35.0302582  53.7110895  -1.7519881  35.7369349  53.2162926  -1.6232947
  35.2190517  54.1519976  -2.4817223  35.1630487  53.7029245  -1.8410836
  29.7365336  56.4169591  -4.8788144  29.1736171  56.0042201  -4.3548483
  30.4986359  56.3422497  -4.4595001  29.7659784  56.3446992  -4.7395144
  26.3440234  48.6443200  -3.1471099  26.5160738  48.5349094  -2.2985817
  26.8809591  49.2897605  -3.3839906  26.4485238  48.7235201  -3.0566002
  32.2814935  56.5647451  -1.1962022  33.0655352  56.6778298  -0.8306280
  32.0811530  55.7388588  -1.0003337  32.3680961  56.4594170  -1.1127636
  24.1241116  48.7418913  -4.5224326  24.8481088  48.7271944  -4.0359431
  24.2257253  49.4514268  -5.0202358  24.2459325  48.8443616  -4.5245539
  31.4986066  52.2217997   0.3424621  30.7059046  52.5361509   0.5277241
  31.6134993  52.4369466  -0.4954594  31.3981476  52.3001834   0.2462956
  32.4269858  52.1238201  -4.7190082  33.0008720  51.4865445  -4.5641518
  32.3484662  52.1242284  -5.5880424  32.5003093  52.0303313  -4.8243671
  28.2059780  42.7851405   0.0574981  27.8913221  43.5550968  -0.2055456
  27.8849712  42.2221661  -0.5272792  28.1118699  42.8161674  -0.0683669
  28.9109227  52.5267612  -6.5002102  28.4120921  53.2383379  -6.4217214
  29.7209451  52.8468278  -6.5383940  28.9565334  52.6794460  -6.4945534
  27.8376285  45.3848656  -1.2039804  27.0276061  45.6906436  -1.3149962
  28.3150972  46.1054239  -1.0887220  27.7879764  45.5363257  -1.2032733
  34.4615682  50.3875401  -4.1101892  34.4563720  49.5155218  -4.1059466
  35.1676676  50.5863571  -4.5832437  34.5660686  50.2879276  -4.1794857
  28.1886575  50.1152385  -4.7388072  28.3329951  50.6953594  -5.3744962
  28.5362224  50.4928682  -4.0338218  28.2614036  50.2573089  -4.7289077
  30.3606492  49.3142554  -6.9562941  29.6129806  49.5073568  -7.3614663
  30.5148018  48.4887773  -7.1938819  30.2728920  49.2207665  -7.0517535
  30.9928478  47.6755468  -4.7402214  30.9287619  48.5365424  -4.8682077
  31.1325665  47.3587461  -5.5406663  31.0043948  47.7555634  -4.8774001
  35.3726269  54.4500189   0.8162237  36.1861134  54.1785338   0.9767369
  35.2121235  54.1507729   0.0122433  35.4696217  54.3655115   0.7207643
  32.6498431  45.1333846  -6.2442375  32.8640400  44.4944761  -6.7979021
  32.0332330  45.5779670  -6.6734513  32.5903760  45.1043990  -6.3891944
  34.8137519  46.7422912  -5.3059068  34.0014200  46.4348802  -5.2245895
  35.2727453  46.2621912  -4.7416356  34.7617903  46.6259404  -5.2104474
  31.9091026  48.1482983  -0.5230365  32.3790657  48.7725099  -0.1362491
  31.9552906  47.4799959   0.0362849  31.9858902  48.1417663  -0.3830294
  30.6025590  42.4671151  -3.4052038  31.4299019  42.1956300  -3.3493423
  30.6233436  43.2631992  -3.0488219  30.7278440  42.5450905  -3.3436855
  27.1147860  43.8347468  -3.5650099  26.7233425  43.1880816  -3.1294322
  27.2833723  44.4258904  -2.9455844  27.0818770  43.8261736  -3.4087393
  28.5598937  51.3640701  -2.2504985  27.7094568  51.5012415  -2.1147340
  28.7227065  50.6304479  -1.8057283  28.4582801  51.2754802  -2.1649385
  32.3109384  53.5102313  -2.2455487  32.2705239  52.8651990  -2.8310331
  33.1232702  53.4538931  -1.9330075  32.4252538  53.4061280  -2.2858538
  27.9987093  47.1399250  -5.6905729  27.4865996  46.5320433  -5.3320698
  27.8266589  47.8555842  -5.2231754  27.8976730  47.1562549  -5.5689506
  22.8452807  45.5836825  -3.0403368  22.6755398  46.2438200  -3.5855161
  22.4018757  45.7943386  -2.3190878  22.7552141  45.7122807  -3.0141738
  31.8756163  45.0623495  -3.2503474  32.4327593  44.8337304  -3.8825008
  31.5517228  45.8229160  -3.5268261  31.9102573  45.1407331  -3.3846977
  29.5939280  48.1491148  -2.2851467  30.3450607  48.4642825  -1.9711912
  29.7861857  47.9470319  -3.1117545  29.7330695  48.1658530  -2.3608071
  34.9072825  57.0301481  -0.1921106  35.0169791  56.2410042   0.1635641
  35.2363722  56.9407417  -0.9946768  34.9725231  56.9007334  -0.2578715
  82.9232421  82.9232421  82.9232421 109.4712190 109.4712190 109.4712190
